<?xml version="1.0" encoding="UTF-8"?>

<!-- generated on 2025-01-06 21:55:44 by Eclipse SUMO GUI Version 1.19.0
<configuration xmlns:xsi="http://www.w3.org/2001/XMLSchema-instance" xsi:noNamespaceSchemaLocation="http://sumo.dlr.de/xsd/sumoConfiguration.xsd">

    <input>
        <net-file value="C:\Program Files (x86)\Eclipse\Sumo\bin\simulation_test\city_network.net.xml"/>
        <route-files value="C:\Program Files (x86)\Eclipse\Sumo\bin\simulation_test\bashiti_routes_removed.rou.xml"/>
        <additional-files value="C:\Program Files (x86)\Eclipse\Sumo\bin\simulation_test\tls_e3_detectors.add.xml,C:\Program Files (x86)\Eclipse\Sumo\bin\simulation_test\ tls_e2_detectors.add.xml,C:\Program Files (x86)\Eclipse\Sumo\bin\simulation_test\ tls_e1_detectors.add.xml"/>
    </input>

    <output>
        <fcd-output value="C:\Program Files (x86)\Eclipse\Sumo\bin\simulation_test\output.fcd.xml"/>
        <summary-output value="C:\Program Files (x86)\Eclipse\Sumo\bin\simulation_test\city_summary.xml"/>
        <tripinfo-output value="C:\Program Files (x86)\Eclipse\Sumo\bin\simulation_test\output.tripinfo.xml"/>
        <edgedata-output value="C:\Program Files (x86)\Eclipse\Sumo\bin\simulation_test\output.edgeData.xml"/>
    </output>

    <time>
        <begin value="0"/>
        <end value="20000"/>
    </time>

    <report>
        <verbose value="true"/>
        <no-warnings value="true"/>
    </report>

</configuration>
-->

<meandata xmlns:xsi="http://www.w3.org/2001/XMLSchema-instance" xsi:noNamespaceSchemaLocation="http://sumo.dlr.de/xsd/meandata_file.xsd">
    <interval begin="0.00" end="16844.00" id="DEFAULT_EDGEDATA">
        <edge id="-688199688#1" sampledSeconds="576.14" traveltime="5.42" overlapTraveltime="5.81" density="0.57" laneDensity="0.57" occupancy="0.26" waitingTime="0.00" timeLoss="99.81" speed="11.20" speedRelative="0.81" departed="1" arrived="101" entered="100" left="0" laneChangedFrom="0" laneChangedTo="0"/>
        <edge id="154286264" sampledSeconds="173.44" traveltime="5.02" overlapTraveltime="5.38" density="0.20" laneDensity="0.20" occupancy="0.08" waitingTime="0.00" timeLoss="45.05" speed="10.28" speedRelative="0.74" departed="1" arrived="33" entered="32" left="0" laneChangedFrom="0" laneChangedTo="0"/>
        <edge id="412441780#0" sampledSeconds="199655.14" traveltime="137.53" overlapTraveltime="155.17" density="178.43" laneDensity="89.22" occupancy="40.33" waitingTime="178685.00" timeLoss="195460.15" speed="0.46" speedRelative="0.02" departed="1390" arrived="19" entered="0" left="1364" laneChangedFrom="899" laneChangedTo="899"/>
        <edge id="412441780#1" sampledSeconds="29184.81" traveltime="19.85" overlapTraveltime="22.32" density="400.00" laneDensity="200.00" occupancy="57.92" waitingTime="27133.00" timeLoss="28555.70" speed="0.36" speedRelative="0.02" departed="47" arrived="13" entered="1363" left="1396" laneChangedFrom="2" laneChangedTo="2"/>
        <edge id="412441780#2" sampledSeconds="2123.12" traveltime="0.76" overlapTraveltime="2.36" density="400.00" laneDensity="200.00" occupancy="6.14" waitingTime="1008.00" timeLoss="1531.35" speed="3.33" speedRelative="0.15" departed="0" arrived="0" entered="1396" left="1396" laneChangedFrom="16" laneChangedTo="16" teleported="3"/>
        <edge id="50437157" sampledSeconds="65.01" traveltime="6.48" overlapTraveltime="7.18" density="0.18" laneDensity="0.18" occupancy="0.08" waitingTime="6.00" timeLoss="51.08" speed="3.61" speedRelative="0.16" departed="11" arrived="0" entered="0" left="11" laneChangedFrom="0" laneChangedTo="0"/>
        <edge id="50437158" sampledSeconds="41.07" traveltime="5.00" overlapTraveltime="5.59" density="0.19" laneDensity="0.19" occupancy="0.08" waitingTime="5.00" timeLoss="34.25" speed="3.10" speedRelative="0.14" departed="10" arrived="0" entered="0" left="10" laneChangedFrom="0" laneChangedTo="0"/>
        <edge id="50437161" sampledSeconds="198611.62" traveltime="165.54" overlapTraveltime="178.23" density="145.99" laneDensity="48.66" occupancy="23.20" waitingTime="174257.00" timeLoss="194241.64" speed="0.48" speedRelative="0.02" departed="1188" arrived="16" entered="0" left="1172" laneChangedFrom="1355" laneChangedTo="1355" teleported="3"/>
        <edge id="672153002#0" sampledSeconds="2874.70" traveltime="0.10" overlapTraveltime="1.08" density="600.00" laneDensity="200.00" occupancy="5.47" waitingTime="164.00" timeLoss="1586.76" speed="5.21" speedRelative="0.19" departed="40" arrived="0" entered="2904" left="2944" laneChangedFrom="57" laneChangedTo="57"/>
        <edge id="672153002#1" sampledSeconds="1302.28" traveltime="0.02" overlapTraveltime="0.65" density="386.57" laneDensity="128.86" occupancy="2.48" waitingTime="0.00" timeLoss="860.17" speed="8.96" speedRelative="0.32" departed="0" arrived="0" entered="2282" left="2282" laneChangedFrom="0" laneChangedTo="0"/>
        <edge id="672153002#2" sampledSeconds="1887.21" traveltime="0.35" overlapTraveltime="0.87" density="32.01" laneDensity="10.67" occupancy="2.20" waitingTime="0.00" timeLoss="1164.59" speed="10.20" speedRelative="0.37" departed="15" arrived="0" entered="2282" left="2297" laneChangedFrom="1" laneChangedTo="1"/>
        <edge id="672153002#3" sampledSeconds="8261.57" traveltime="3.30" overlapTraveltime="3.59" density="9.54" laneDensity="3.18" occupancy="1.46" waitingTime="0.00" timeLoss="3432.35" speed="15.76" speedRelative="0.57" departed="14" arrived="121" entered="2301" left="2193" laneChangedFrom="18" laneChangedTo="18"/>
        <edge id="672153002#4" sampledSeconds="2818.85" traveltime="1.04" overlapTraveltime="1.30" density="8.10" laneDensity="2.70" occupancy="1.10" waitingTime="0.00" timeLoss="728.67" speed="19.95" speedRelative="0.72" departed="14" arrived="115" entered="2193" left="2091" laneChangedFrom="2" laneChangedTo="2"/>
        <edge id="672153002#5" sampledSeconds="1580.73" traveltime="0.52" overlapTraveltime="0.77" density="8.38" laneDensity="2.79" occupancy="0.98" waitingTime="0.00" timeLoss="322.80" speed="21.37" speedRelative="0.77" departed="15" arrived="100" entered="2091" left="2006" laneChangedFrom="2" laneChangedTo="2"/>
        <edge id="672153002#6" sampledSeconds="16466.43" traveltime="7.96" overlapTraveltime="8.16" density="5.03" laneDensity="1.68" occupancy="0.82" waitingTime="0.00" timeLoss="1575.89" speed="24.45" speedRelative="0.88" departed="22" arrived="2027" entered="2006" left="0" laneChangedFrom="8" laneChangedTo="8"/>
        <edge id="687375092#0" sampledSeconds="106.24" traveltime="0.01" overlapTraveltime="0.74" density="52.56" laneDensity="26.28" occupancy="0.31" waitingTime="0.00" timeLoss="64.05" speed="8.54" speedRelative="0.38" departed="0" arrived="0" entered="175" left="175" laneChangedFrom="0" laneChangedTo="0"/>
        <edge id="687375092#1" sampledSeconds="132.12" traveltime="0.31" overlapTraveltime="0.89" density="2.61" laneDensity="1.30" occupancy="0.25" waitingTime="0.00" timeLoss="72.33" speed="9.80" speedRelative="0.44" departed="3" arrived="89" entered="175" left="89" laneChangedFrom="0" laneChangedTo="0"/>
        <edge id="687375092#2" sampledSeconds="428.36" traveltime="4.29" overlapTraveltime="4.59" density="0.39" laneDensity="0.19" occupancy="0.10" waitingTime="0.00" timeLoss="122.93" speed="15.55" speedRelative="0.70" departed="5" arrived="95" entered="90" left="0" laneChangedFrom="0" laneChangedTo="0"/>
        <edge id="687375093" sampledSeconds="3.88" traveltime="4.45" overlapTraveltime="4.98" density="0.01" laneDensity="0.01" occupancy="0.01" waitingTime="0.00" timeLoss="3.11" speed="4.15" speedRelative="0.19" departed="1" arrived="0" entered="0" left="1" laneChangedFrom="0" laneChangedTo="0"/>
        <edge id="687376009" sampledSeconds="68.36" traveltime="28.21" overlapTraveltime="20.15" density="0.32" laneDensity="0.32" occupancy="0.17" waitingTime="44.00" timeLoss="65.36" speed="0.92" speedRelative="0.04" departed="5" arrived="0" entered="0" left="5" laneChangedFrom="0" laneChangedTo="0"/>
        <edge id="687376010#0" sampledSeconds="902.83" traveltime="0.03" overlapTraveltime="0.70" density="268.00" laneDensity="134.00" occupancy="2.58" waitingTime="0.00" timeLoss="555.15" speed="8.33" speedRelative="0.37" departed="0" arrived="0" entered="1475" left="1475" laneChangedFrom="0" laneChangedTo="0"/>
        <edge id="687376010#1" sampledSeconds="1999.77" traveltime="0.89" overlapTraveltime="1.39" density="13.93" laneDensity="6.97" occupancy="2.20" waitingTime="0.00" timeLoss="1088.18" speed="9.90" speedRelative="0.45" departed="14" arrived="104" entered="1475" left="1385" laneChangedFrom="0" laneChangedTo="0"/>
        <edge id="687376010#2" sampledSeconds="3979.15" traveltime="2.47" overlapTraveltime="2.86" density="7.22" laneDensity="3.61" occupancy="1.57" waitingTime="0.00" timeLoss="1442.09" speed="13.22" speedRelative="0.60" departed="6" arrived="107" entered="1396" left="1294" laneChangedFrom="0" laneChangedTo="0"/>
        <edge id="687376010#3" sampledSeconds="1186.38" traveltime="0.78" overlapTraveltime="1.09" density="5.56" laneDensity="2.78" occupancy="1.01" waitingTime="0.00" timeLoss="292.63" speed="16.40" speedRelative="0.74" departed="17" arrived="90" entered="1100" left="1027" laneChangedFrom="0" laneChangedTo="0"/>
        <edge id="687376010#4" sampledSeconds="6169.00" traveltime="4.44" overlapTraveltime="4.72" density="5.67" laneDensity="2.84" occupancy="1.35" waitingTime="0.00" timeLoss="1997.70" speed="14.76" speedRelative="0.66" departed="302" arrived="1345" entered="1044" left="0" laneChangedFrom="3" laneChangedTo="3"/>
        <edge id="687443514" sampledSeconds="1933.18" traveltime="0.04" overlapTraveltime="1.06" density="400.00" laneDensity="200.00" occupancy="5.51" waitingTime="0.00" timeLoss="903.76" speed="5.29" speedRelative="0.24" departed="0" arrived="0" entered="2056" left="2054" laneChangedFrom="1" laneChangedTo="1"/>
        <edge id="687443515" sampledSeconds="1647.78" traveltime="0.06" overlapTraveltime="1.15" density="489.13" laneDensity="163.04" occupancy="3.10" waitingTime="1.00" timeLoss="506.62" speed="4.93" speedRelative="0.22" departed="0" arrived="0" entered="1591" left="1591" laneChangedFrom="97" laneChangedTo="97"/>
        <edge id="688169643#0" sampledSeconds="1662.94" traveltime="0.27" overlapTraveltime="0.81" density="39.33" laneDensity="13.11" occupancy="2.18" waitingTime="0.00" timeLoss="1050.05" speed="9.77" speedRelative="0.35" departed="0" arrived="0" entered="2200" left="2200" laneChangedFrom="4" laneChangedTo="4"/>
        <edge id="688169643#1" sampledSeconds="1067.32" traveltime="0.02" overlapTraveltime="0.56" density="316.82" laneDensity="105.61" occupancy="2.03" waitingTime="0.00" timeLoss="638.30" speed="10.58" speedRelative="0.38" departed="18" arrived="0" entered="2200" left="2218" laneChangedFrom="0" laneChangedTo="0"/>
        <edge id="688169643#2" sampledSeconds="16198.93" traveltime="6.99" overlapTraveltime="7.23" density="7.32" laneDensity="2.44" occupancy="1.17" waitingTime="0.00" timeLoss="4795.98" speed="18.87" speedRelative="0.68" departed="19" arrived="108" entered="2227" left="2137" laneChangedFrom="52" laneChangedTo="52"/>
        <edge id="688169644#0" sampledSeconds="57461.76" traveltime="28.29" overlapTraveltime="29.17" density="290.09" laneDensity="72.52" occupancy="31.38" waitingTime="50536.00" timeLoss="56083.33" speed="0.57" speedRelative="0.02" departed="39" arrived="0" entered="1943" left="1981" laneChangedFrom="46" laneChangedTo="46"/>
        <edge id="688169644#1" sampledSeconds="1792.54" traveltime="0.04" overlapTraveltime="1.01" density="532.10" laneDensity="133.02" occupancy="2.56" waitingTime="5.00" timeLoss="1117.32" speed="5.63" speedRelative="0.20" departed="0" arrived="0" entered="1981" left="1981" laneChangedFrom="0" laneChangedTo="0"/>
        <edge id="688169644#2" sampledSeconds="2148.39" traveltime="0.04" overlapTraveltime="0.94" density="637.73" laneDensity="159.43" occupancy="3.06" waitingTime="17.00" timeLoss="1102.73" speed="5.99" speedRelative="0.22" departed="0" arrived="0" entered="2560" left="2560" laneChangedFrom="5" laneChangedTo="5"/>
        <edge id="688169645" sampledSeconds="58549.18" traveltime="23.68" overlapTraveltime="29.87" density="64.03" laneDensity="16.01" occupancy="6.33" waitingTime="44033.00" timeLoss="54247.29" speed="1.98" speedRelative="0.07" departed="40" arrived="25" entered="1928" left="1943" laneChangedFrom="263" laneChangedTo="263"/>
        <edge id="688169646" sampledSeconds="40626.63" traveltime="20.10" overlapTraveltime="21.30" density="10.52" laneDensity="2.63" occupancy="1.27" waitingTime="7230.00" timeLoss="24110.52" speed="11.00" speedRelative="0.40" departed="1950" arrived="21" entered="0" left="1928" laneChangedFrom="2698" laneChangedTo="2698"/>
        <edge id="688170737" sampledSeconds="7643.02" traveltime="3.51" overlapTraveltime="3.71" density="5.30" laneDensity="1.77" occupancy="0.84" waitingTime="0.00" timeLoss="715.64" speed="24.44" speedRelative="0.88" departed="25" arrived="2081" entered="2056" left="0" laneChangedFrom="12" laneChangedTo="12"/>
        <edge id="688171462#0" sampledSeconds="74083.06" traveltime="52.28" overlapTraveltime="52.93" density="31.02" laneDensity="10.34" occupancy="5.30" waitingTime="46182.00" timeLoss="66406.37" speed="2.78" speedRelative="0.10" departed="1452" arrived="14" entered="0" left="1438" laneChangedFrom="1924" laneChangedTo="1924"/>
        <edge id="688171462#1" sampledSeconds="88677.94" traveltime="58.50" overlapTraveltime="61.05" density="67.74" laneDensity="22.58" occupancy="11.34" waitingTime="68223.00" timeLoss="84182.90" speed="1.36" speedRelative="0.05" departed="56" arrived="24" entered="1406" left="1438" laneChangedFrom="455" laneChangedTo="455"/>
        <edge id="688171462#2" sampledSeconds="3097.64" traveltime="1.10" overlapTraveltime="2.18" density="600.00" laneDensity="200.00" occupancy="6.01" waitingTime="1508.00" timeLoss="2803.62" speed="2.45" speedRelative="0.09" departed="51" arrived="0" entered="1437" left="1488" laneChangedFrom="6" laneChangedTo="6"/>
        <edge id="688171462#3" sampledSeconds="2353.97" traveltime="0.67" overlapTraveltime="1.68" density="39.59" laneDensity="13.20" occupancy="2.72" waitingTime="27.00" timeLoss="1847.89" speed="5.35" speedRelative="0.19" departed="0" arrived="0" entered="1488" left="1488" laneChangedFrom="7" laneChangedTo="7"/>
        <edge id="688199688#1" sampledSeconds="283.53" traveltime="14.87" overlapTraveltime="16.15" density="0.28" laneDensity="0.28" occupancy="0.13" waitingTime="85.00" timeLoss="191.92" speed="4.03" speedRelative="0.29" departed="19" arrived="0" entered="0" left="19" laneChangedFrom="0" laneChangedTo="0"/>
        <edge id="688199690" sampledSeconds="431.54" traveltime="3.42" overlapTraveltime="4.17" density="1.30" laneDensity="1.30" occupancy="0.55" waitingTime="10.00" timeLoss="238.86" speed="6.03" speedRelative="0.43" departed="11" arrived="96" entered="102" left="17" laneChangedFrom="0" laneChangedTo="0"/>
        <edge id="688199692" sampledSeconds="638.94" traveltime="2.28" overlapTraveltime="3.33" density="2.48" laneDensity="2.48" occupancy="0.94" waitingTime="0.00" timeLoss="279.42" speed="6.19" speedRelative="0.45" departed="7" arrived="99" entered="194" left="102" laneChangedFrom="0" laneChangedTo="0"/>
        <edge id="688214482" sampledSeconds="130535.79" traveltime="101.52" overlapTraveltime="107.98" density="175.45" laneDensity="58.48" occupancy="26.22" waitingTime="117563.00" timeLoss="127815.29" speed="0.46" speedRelative="0.02" departed="48" arrived="14" entered="1172" left="1204" laneChangedFrom="474" laneChangedTo="474"/>
        <edge id="688214484#0" sampledSeconds="35135.99" traveltime="27.44" overlapTraveltime="29.41" density="368.54" laneDensity="122.85" occupancy="51.96" waitingTime="32497.00" timeLoss="34352.44" speed="0.36" speedRelative="0.02" departed="38" arrived="13" entered="1206" left="1231" laneChangedFrom="24" laneChangedTo="24"/>
        <edge id="688214484#1" sampledSeconds="2266.32" traveltime="1.03" overlapTraveltime="2.29" density="600.00" laneDensity="200.00" occupancy="4.36" waitingTime="1213.00" timeLoss="1755.72" speed="2.77" speedRelative="0.12" departed="0" arrived="0" entered="1231" left="1231" laneChangedFrom="26" laneChangedTo="26" teleported="1"/>
    </interval>
</meandata>
