<?xml version="1.0" encoding="UTF-8"?>

<!-- generated on 2025-01-06 21:55:44 by Eclipse SUMO GUI Version 1.19.0
<configuration xmlns:xsi="http://www.w3.org/2001/XMLSchema-instance" xsi:noNamespaceSchemaLocation="http://sumo.dlr.de/xsd/sumoConfiguration.xsd">

    <input>
        <net-file value="C:\Program Files (x86)\Eclipse\Sumo\bin\simulation_test\city_network.net.xml"/>
        <route-files value="C:\Program Files (x86)\Eclipse\Sumo\bin\simulation_test\bashiti_routes_removed.rou.xml"/>
        <additional-files value="C:\Program Files (x86)\Eclipse\Sumo\bin\simulation_test\tls_e3_detectors.add.xml,C:\Program Files (x86)\Eclipse\Sumo\bin\simulation_test\ tls_e2_detectors.add.xml,C:\Program Files (x86)\Eclipse\Sumo\bin\simulation_test\ tls_e1_detectors.add.xml"/>
    </input>

    <output>
        <fcd-output value="C:\Program Files (x86)\Eclipse\Sumo\bin\simulation_test\output.fcd.xml"/>
        <summary-output value="C:\Program Files (x86)\Eclipse\Sumo\bin\simulation_test\city_summary.xml"/>
        <tripinfo-output value="C:\Program Files (x86)\Eclipse\Sumo\bin\simulation_test\output.tripinfo.xml"/>
        <edgedata-output value="C:\Program Files (x86)\Eclipse\Sumo\bin\simulation_test\output.edgeData.xml"/>
    </output>

    <time>
        <begin value="0"/>
        <end value="20000"/>
    </time>

    <report>
        <verbose value="true"/>
        <no-warnings value="true"/>
    </report>

</configuration>
-->

<tripinfos xmlns:xsi="http://www.w3.org/2001/XMLSchema-instance" xsi:noNamespaceSchemaLocation="http://sumo.dlr.de/xsd/tripinfo_file.xsd">
    <tripinfo id="17" depart="0.00" departLane="687376010#4_0" departPos="4.60" departSpeed="0.00" departDelay="0.00" arrival="8.00" arrivalLane="687376010#4_0" arrivalPos="64.56" arrivalSpeed="15.43" duration="8.00" routeLength="59.96" waitingTime="0.00" waitingCount="0" stopTime="0.00" timeLoss="4.97" rerouteNo="0" devices="tripinfo_17 fcd_17" vType="sedan" speedFactor="1.05" vaporized=""/>
    <tripinfo id="15" depart="0.00" departLane="688170737_0" departPos="4.60" departSpeed="0.00" departDelay="0.00" arrival="9.00" arrivalLane="688170737_0" arrivalPos="85.57" arrivalSpeed="15.83" duration="9.00" routeLength="80.97" waitingTime="0.00" waitingCount="0" stopTime="0.00" timeLoss="6.15" rerouteNo="0" devices="tripinfo_15 fcd_15" vType="sedan" speedFactor="1.03" vaporized=""/>
    <tripinfo id="70" depart="3.00" departLane="687376010#4_0" departPos="4.60" departSpeed="0.00" departDelay="3.00" arrival="12.00" arrivalLane="687376010#4_0" arrivalPos="64.56" arrivalSpeed="16.82" duration="9.00" routeLength="59.96" waitingTime="0.00" waitingCount="0" stopTime="0.00" timeLoss="5.55" rerouteNo="0" devices="tripinfo_70 fcd_70" vType="sedan" speedFactor="1.00" vaporized=""/>
    <tripinfo id="76" depart="6.00" departLane="687376010#4_0" departPos="4.60" departSpeed="0.00" departDelay="6.00" arrival="14.00" arrivalLane="687376010#4_0" arrivalPos="64.56" arrivalSpeed="15.83" duration="8.00" routeLength="59.96" waitingTime="0.00" waitingCount="0" stopTime="0.00" timeLoss="4.57" rerouteNo="0" devices="tripinfo_76 fcd_76" vType="sedan" speedFactor="0.85" vaporized=""/>
    <tripinfo id="238" depart="0.00" departLane="688169643#1_0" departPos="0.20" departSpeed="0.00" departDelay="0.00" arrival="15.00" arrivalLane="688170737_0" arrivalPos="85.57" arrivalSpeed="29.28" duration="15.00" routeLength="246.21" waitingTime="0.00" waitingCount="0" stopTime="0.00" timeLoss="7.37" rerouteNo="0" devices="tripinfo_238 fcd_238" vType="sedan" speedFactor="1.16" vaporized=""/>
    <tripinfo id="175" depart="0.00" departLane="688199692_0" departPos="4.60" departSpeed="0.00" departDelay="0.00" arrival="16.00" arrivalLane="687376010#4_0" arrivalPos="64.56" arrivalSpeed="15.07" duration="16.00" routeLength="107.21" waitingTime="0.00" waitingCount="0" stopTime="0.00" timeLoss="8.91" rerouteNo="0" devices="tripinfo_175 fcd_175" vType="sedan" speedFactor="1.07" vaporized=""/>
    <tripinfo id="28" depart="0.00" departLane="50437158_0" departPos="4.60" departSpeed="0.00" departDelay="0.00" arrival="18.00" arrivalLane="688170737_0" arrivalPos="85.57" arrivalSpeed="27.02" duration="18.00" routeLength="255.05" waitingTime="0.00" waitingCount="0" stopTime="0.00" timeLoss="7.78" rerouteNo="0" devices="tripinfo_28 fcd_28" vType="sedan" speedFactor="1.02" vaporized=""/>
    <tripinfo id="196" depart="1.00" departLane="672153002#0_0" departPos="0.20" departSpeed="0.00" departDelay="1.00" arrival="18.00" arrivalLane="687376010#4_1" arrivalPos="64.56" arrivalSpeed="24.91" duration="17.00" routeLength="168.21" waitingTime="4.00" waitingCount="1" stopTime="0.00" timeLoss="10.14" rerouteNo="0" devices="tripinfo_196 fcd_196" vType="sedan" speedFactor="1.18" vaporized=""/>
    <tripinfo id="34" depart="0.00" departLane="672153002#3_0" departPos="4.60" departSpeed="0.00" departDelay="0.00" arrival="19.00" arrivalLane="672153002#6_0" arrivalPos="194.42" arrivalSpeed="23.42" duration="19.00" routeLength="292.54" waitingTime="0.00" waitingCount="0" stopTime="0.00" timeLoss="6.26" rerouteNo="0" devices="tripinfo_34 fcd_34" vType="sedan" speedFactor="0.89" vaporized=""/>
    <tripinfo id="58" depart="0.00" departLane="672153002#0_0" departPos="0.20" departSpeed="0.00" departDelay="0.00" arrival="19.00" arrivalLane="688170737_2" arrivalPos="85.57" arrivalSpeed="31.76" duration="19.00" routeLength="279.45" waitingTime="2.00" waitingCount="1" stopTime="0.00" timeLoss="9.14" rerouteNo="0" devices="tripinfo_58 fcd_58" vType="sedan" speedFactor="1.18" vaporized=""/>
    <tripinfo id="120" depart="12.00" departLane="687376010#4_0" departPos="4.60" departSpeed="0.00" departDelay="12.00" arrival="20.00" arrivalLane="687376010#4_0" arrivalPos="64.56" arrivalSpeed="15.46" duration="8.00" routeLength="59.96" waitingTime="0.00" waitingCount="0" stopTime="0.00" timeLoss="4.80" rerouteNo="0" devices="tripinfo_120 fcd_120" vType="sedan" speedFactor="1.04" vaporized=""/>
    <tripinfo id="182" depart="16.00" departLane="687376010#4_0" departPos="12.10" departSpeed="0.00" departDelay="16.00" arrival="27.00" arrivalLane="687376010#4_0" arrivalPos="64.56" arrivalSpeed="9.43" duration="11.00" routeLength="52.46" waitingTime="0.00" waitingCount="0" stopTime="0.00" timeLoss="8.13" rerouteNo="0" devices="tripinfo_182 fcd_182" vType="bus" speedFactor="0.93" vaporized=""/>
    <tripinfo id="5" depart="1.00" departLane="50437161_0" departPos="4.60" departSpeed="0.00" departDelay="1.00" arrival="30.00" arrivalLane="687376010#4_1" arrivalPos="64.56" arrivalSpeed="23.21" duration="29.00" routeLength="327.55" waitingTime="0.00" waitingCount="0" stopTime="0.00" timeLoss="13.71" rerouteNo="0" devices="tripinfo_5 fcd_5" vType="sedan" speedFactor="1.08" vaporized=""/>
    <tripinfo id="30" depart="0.00" departLane="688214482_0" departPos="12.10" departSpeed="0.00" departDelay="0.00" arrival="30.00" arrivalLane="688170737_0" arrivalPos="85.57" arrivalSpeed="19.96" duration="30.00" routeLength="311.23" waitingTime="0.00" waitingCount="0" stopTime="0.00" timeLoss="12.19" rerouteNo="0" devices="tripinfo_30 fcd_30" vType="bus" speedFactor="1.01" vaporized=""/>
    <tripinfo id="1" depart="0.00" departLane="50437161_0" departPos="4.60" departSpeed="0.00" departDelay="0.00" arrival="31.00" arrivalLane="672153002#6_1" arrivalPos="194.42" arrivalSpeed="29.11" duration="31.00" routeLength="494.32" waitingTime="0.00" waitingCount="0" stopTime="0.00" timeLoss="11.55" rerouteNo="0" devices="tripinfo_1 fcd_1" vType="sedan" speedFactor="1.06" vaporized=""/>
    <tripinfo id="8" depart="3.00" departLane="50437161_0" departPos="4.60" departSpeed="0.00" departDelay="3.00" arrival="33.00" arrivalLane="687376010#4_1" arrivalPos="64.56" arrivalSpeed="22.50" duration="30.00" routeLength="327.55" waitingTime="0.00" waitingCount="0" stopTime="0.00" timeLoss="13.88" rerouteNo="0" devices="tripinfo_8 fcd_8" vType="sedan" speedFactor="1.05" vaporized=""/>
    <tripinfo id="198" depart="21.00" departLane="687376010#4_0" departPos="10.10" departSpeed="0.00" departDelay="21.00" arrival="33.00" arrivalLane="687376010#4_0" arrivalPos="64.56" arrivalSpeed="9.11" duration="12.00" routeLength="54.46" waitingTime="0.00" waitingCount="0" stopTime="0.00" timeLoss="9.38" rerouteNo="0" devices="tripinfo_198 fcd_198" vType="truck" speedFactor="1.00" vaporized=""/>
    <tripinfo id="235" depart="26.00" departLane="687376010#4_0" departPos="4.60" departSpeed="0.00" departDelay="26.00" arrival="35.00" arrivalLane="687376010#4_0" arrivalPos="64.56" arrivalSpeed="12.42" duration="9.00" routeLength="59.96" waitingTime="0.00" waitingCount="0" stopTime="0.00" timeLoss="6.42" rerouteNo="0" devices="tripinfo_235 fcd_235" vType="sedan" speedFactor="1.11" vaporized=""/>
    <tripinfo id="251" depart="29.00" departLane="687376010#4_0" departPos="4.60" departSpeed="0.00" departDelay="29.00" arrival="37.00" arrivalLane="687376010#4_0" arrivalPos="64.56" arrivalSpeed="14.88" duration="8.00" routeLength="59.96" waitingTime="0.00" waitingCount="0" stopTime="0.00" timeLoss="5.56" rerouteNo="0" devices="tripinfo_251 fcd_251" vType="sedan" speedFactor="1.14" vaporized=""/>
    <tripinfo id="52" depart="14.00" departLane="50437161_0" departPos="4.60" departSpeed="0.00" departDelay="14.00" arrival="41.00" arrivalLane="688170737_0" arrivalPos="85.57" arrivalSpeed="31.11" duration="27.00" routeLength="399.95" waitingTime="0.00" waitingCount="0" stopTime="0.00" timeLoss="12.88" rerouteNo="0" devices="tripinfo_52 fcd_52" vType="sedan" speedFactor="1.17" vaporized=""/>
    <tripinfo id="26" depart="6.00" departLane="50437161_0" departPos="12.10" departSpeed="0.00" departDelay="6.00" arrival="44.00" arrivalLane="688199690_0" arrivalPos="19.74" arrivalSpeed="7.78" duration="38.00" routeLength="272.66" waitingTime="0.00" waitingCount="0" stopTime="0.00" timeLoss="19.45" rerouteNo="0" devices="tripinfo_26 fcd_26" vType="bus" speedFactor="0.94" vaporized=""/>
    <tripinfo id="39" depart="11.00" departLane="50437161_0" departPos="4.60" departSpeed="0.00" departDelay="11.00" arrival="46.00" arrivalLane="672153002#6_1" arrivalPos="194.42" arrivalSpeed="30.17" duration="35.00" routeLength="494.32" waitingTime="0.00" waitingCount="0" stopTime="0.00" timeLoss="16.70" rerouteNo="0" devices="tripinfo_39 fcd_39" vType="sedan" speedFactor="1.13" vaporized=""/>
    <tripinfo id="71" depart="17.00" departLane="50437161_0" departPos="4.60" departSpeed="0.00" departDelay="17.00" arrival="47.00" arrivalLane="688170737_0" arrivalPos="85.57" arrivalSpeed="24.30" duration="30.00" routeLength="399.95" waitingTime="0.00" waitingCount="0" stopTime="0.00" timeLoss="11.15" rerouteNo="0" devices="tripinfo_71 fcd_71" vType="sedan" speedFactor="0.90" vaporized=""/>
    <tripinfo id="21" depart="5.00" departLane="50437161_0" departPos="4.60" departSpeed="0.00" departDelay="5.00" arrival="50.00" arrivalLane="672153002#6_1" arrivalPos="194.42" arrivalSpeed="27.29" duration="45.00" routeLength="494.32" waitingTime="3.00" waitingCount="1" stopTime="0.00" timeLoss="23.99" rerouteNo="0" devices="tripinfo_21 fcd_21" vType="sedan" speedFactor="0.99" vaporized=""/>
    <tripinfo id="35" depart="10.00" departLane="50437161_0" departPos="4.60" departSpeed="0.00" departDelay="10.00" arrival="51.00" arrivalLane="688199690_0" arrivalPos="19.74" arrivalSpeed="9.67" duration="41.00" routeLength="280.16" waitingTime="0.00" waitingCount="0" stopTime="0.00" timeLoss="19.63" rerouteNo="0" devices="tripinfo_35 fcd_35" vType="sedan" speedFactor="0.83" vaporized=""/>
    <tripinfo id="27" depart="11.00" departLane="688169646_0" departPos="4.60" departSpeed="0.00" departDelay="11.00" arrival="54.00" arrivalLane="688169643#2_1" arrivalPos="131.30" arrivalSpeed="27.18" duration="43.00" routeLength="488.31" waitingTime="7.00" waitingCount="1" stopTime="0.00" timeLoss="27.77" rerouteNo="0" devices="tripinfo_27 fcd_27" vType="sedan" speedFactor="1.16" vaporized=""/>
    <tripinfo id="37" depart="14.00" departLane="688169646_0" departPos="4.60" departSpeed="0.00" departDelay="14.00" arrival="54.00" arrivalLane="687375092#1_0" arrivalPos="3.01" arrivalSpeed="10.78" duration="40.00" routeLength="351.47" waitingTime="7.00" waitingCount="1" stopTime="0.00" timeLoss="24.84" rerouteNo="0" devices="tripinfo_37 fcd_37" vType="sedan" speedFactor="0.92" vaporized=""/>
    <tripinfo id="7" depart="3.00" departLane="688169646_0" departPos="4.60" departSpeed="0.00" departDelay="3.00" arrival="56.00" arrivalLane="687376010#4_0" arrivalPos="64.56" arrivalSpeed="17.84" duration="53.00" routeLength="464.67" waitingTime="14.00" waitingCount="1" stopTime="0.00" timeLoss="29.63" rerouteNo="0" devices="tripinfo_7 fcd_7" vType="sedan" speedFactor="0.83" vaporized=""/>
    <tripinfo id="2" depart="0.00" departLane="688169646_0" departPos="4.60" departSpeed="0.00" departDelay="0.00" arrival="57.00" arrivalLane="688170737_1" arrivalPos="85.57" arrivalSpeed="25.81" duration="57.00" routeLength="588.49" waitingTime="16.00" waitingCount="1" stopTime="0.00" timeLoss="33.94" rerouteNo="0" devices="tripinfo_2 fcd_2" vType="sedan" speedFactor="0.94" vaporized=""/>
    <tripinfo id="10" depart="6.00" departLane="688169646_0" departPos="4.60" departSpeed="0.00" departDelay="6.00" arrival="57.00" arrivalLane="688170737_2" arrivalPos="85.57" arrivalSpeed="24.01" duration="51.00" routeLength="588.49" waitingTime="11.00" waitingCount="1" stopTime="0.00" timeLoss="27.02" rerouteNo="0" devices="tripinfo_10 fcd_10" vType="sedan" speedFactor="0.89" vaporized=""/>
    <tripinfo id="116" depart="0.00" departLane="688169644#0_0" departPos="4.60" departSpeed="0.00" departDelay="0.00" arrival="57.00" arrivalLane="688170737_0" arrivalPos="85.57" arrivalSpeed="23.80" duration="57.00" routeLength="290.06" waitingTime="35.00" waitingCount="1" stopTime="0.00" timeLoss="44.77" rerouteNo="0" devices="tripinfo_116 fcd_116" vType="sedan" speedFactor="0.88" vaporized=""/>
    <tripinfo id="51" depart="16.00" departLane="688169646_0" departPos="4.60" departSpeed="0.00" departDelay="16.00" arrival="58.00" arrivalLane="687376010#4_0" arrivalPos="64.56" arrivalSpeed="22.26" duration="42.00" routeLength="464.67" waitingTime="4.00" waitingCount="1" stopTime="0.00" timeLoss="22.75" rerouteNo="0" devices="tripinfo_51 fcd_51" vType="sedan" speedFactor="1.01" vaporized=""/>
    <tripinfo id="90" depart="27.00" departLane="688169646_0" departPos="4.60" departSpeed="0.00" departDelay="27.00" arrival="60.00" arrivalLane="688170737_1" arrivalPos="85.57" arrivalSpeed="24.55" duration="33.00" routeLength="588.49" waitingTime="0.00" waitingCount="0" stopTime="0.00" timeLoss="9.15" rerouteNo="0" devices="tripinfo_90 fcd_90" vType="sedan" speedFactor="0.90" vaporized=""/>
    <tripinfo id="59" depart="0.00" departLane="688169645_0" departPos="4.60" departSpeed="0.00" departDelay="0.00" arrival="62.00" arrivalLane="672153002#6_1" arrivalPos="194.42" arrivalSpeed="29.63" duration="62.00" routeLength="437.37" waitingTime="28.00" waitingCount="1" stopTime="0.00" timeLoss="45.50" rerouteNo="0" devices="tripinfo_59 fcd_59" vType="sedan" speedFactor="1.10" vaporized=""/>
    <tripinfo id="288" depart="55.00" departLane="687376010#4_0" departPos="4.60" departSpeed="0.00" departDelay="2.00" arrival="63.00" arrivalLane="687376010#4_0" arrivalPos="64.56" arrivalSpeed="13.75" duration="8.00" routeLength="59.96" waitingTime="0.00" waitingCount="0" stopTime="0.00" timeLoss="4.86" rerouteNo="0" devices="tripinfo_288 fcd_288" vType="sedan" speedFactor="0.94" vaporized=""/>
    <tripinfo id="60" depart="19.00" departLane="688169646_0" departPos="4.60" departSpeed="0.00" departDelay="19.00" arrival="65.00" arrivalLane="687376010#4_0" arrivalPos="64.56" arrivalSpeed="16.16" duration="46.00" routeLength="464.67" waitingTime="1.00" waitingCount="1" stopTime="0.00" timeLoss="24.10" rerouteNo="0" devices="tripinfo_60 fcd_60" vType="sedan" speedFactor="0.90" vaporized=""/>
    <tripinfo id="24" depart="9.00" departLane="688169646_0" departPos="4.60" departSpeed="0.00" departDelay="9.00" arrival="66.00" arrivalLane="672153002#6_1" arrivalPos="194.42" arrivalSpeed="24.90" duration="57.00" routeLength="666.93" waitingTime="11.00" waitingCount="1" stopTime="0.00" timeLoss="28.90" rerouteNo="0" devices="tripinfo_24 fcd_24" vType="sedan" speedFactor="0.94" vaporized=""/>
    <tripinfo id="49" depart="0.00" departLane="688199688#1_0" departPos="4.60" departSpeed="0.00" departDelay="0.00" arrival="66.00" arrivalLane="688170737_0" arrivalPos="85.57" arrivalSpeed="18.84" duration="66.00" routeLength="150.26" waitingTime="46.00" waitingCount="1" stopTime="0.00" timeLoss="58.98" rerouteNo="0" devices="tripinfo_49 fcd_49" vType="sedan" speedFactor="1.18" vaporized=""/>
    <tripinfo id="61" depart="22.00" departLane="688169646_0" departPos="4.60" departSpeed="0.00" departDelay="22.00" arrival="66.00" arrivalLane="687376010#4_0" arrivalPos="64.56" arrivalSpeed="15.75" duration="44.00" routeLength="464.67" waitingTime="0.00" waitingCount="0" stopTime="0.00" timeLoss="25.80" rerouteNo="0" devices="tripinfo_61 fcd_61" vType="sedan" speedFactor="1.03" vaporized=""/>
    <tripinfo id="69" depart="25.00" departLane="688169646_0" departPos="4.60" departSpeed="0.00" departDelay="25.00" arrival="69.00" arrivalLane="672153002#6_1" arrivalPos="194.42" arrivalSpeed="29.41" duration="44.00" routeLength="666.93" waitingTime="0.00" waitingCount="0" stopTime="0.00" timeLoss="20.23" rerouteNo="0" devices="tripinfo_69 fcd_69" vType="sedan" speedFactor="1.09" vaporized=""/>
    <tripinfo id="221" depart="57.00" departLane="688169644#0_0" departPos="4.60" departSpeed="0.00" departDelay="57.00" arrival="72.00" arrivalLane="688199692_0" arrivalPos="15.32" arrivalSpeed="10.06" duration="15.00" routeLength="94.84" waitingTime="0.00" waitingCount="0" stopTime="0.00" timeLoss="8.41" rerouteNo="0" devices="tripinfo_221 fcd_221" vType="sedan" speedFactor="1.03" vaporized=""/>
    <tripinfo id="134" depart="32.00" departLane="688169646_0" departPos="4.60" departSpeed="0.00" departDelay="32.00" arrival="73.00" arrivalLane="-688199688#1_0" arrivalPos="60.19" arrivalSpeed="13.42" duration="41.00" routeLength="559.26" waitingTime="0.00" waitingCount="0" stopTime="0.00" timeLoss="18.15" rerouteNo="0" devices="tripinfo_134 fcd_134" vType="sedan" speedFactor="1.03" vaporized=""/>
    <tripinfo id="136" depart="35.00" departLane="688169646_0" departPos="4.60" departSpeed="0.00" departDelay="35.00" arrival="73.00" arrivalLane="688199690_0" arrivalPos="19.74" arrivalSpeed="9.69" duration="38.00" routeLength="417.28" waitingTime="0.00" waitingCount="0" stopTime="0.00" timeLoss="18.00" rerouteNo="0" devices="tripinfo_136 fcd_136" vType="sedan" speedFactor="1.01" vaporized=""/>
    <tripinfo id="124" depart="30.00" departLane="688169646_0" departPos="4.60" departSpeed="0.00" departDelay="30.00" arrival="74.00" arrivalLane="672153002#6_1" arrivalPos="194.42" arrivalSpeed="25.81" duration="44.00" routeLength="666.93" waitingTime="0.00" waitingCount="0" stopTime="0.00" timeLoss="16.37" rerouteNo="0" devices="tripinfo_124 fcd_124" vType="sedan" speedFactor="0.97" vaporized=""/>
    <tripinfo id="147" depart="44.00" departLane="688169646_0" departPos="4.60" departSpeed="0.00" departDelay="44.00" arrival="76.00" arrivalLane="687376010#4_1" arrivalPos="64.56" arrivalSpeed="21.85" duration="32.00" routeLength="464.67" waitingTime="0.00" waitingCount="0" stopTime="0.00" timeLoss="12.77" rerouteNo="0" devices="tripinfo_147 fcd_147" vType="sedan" speedFactor="1.00" vaporized=""/>
    <tripinfo id="140" depart="38.00" departLane="688169646_0" departPos="4.60" departSpeed="0.00" departDelay="38.00" arrival="79.00" arrivalLane="672153002#6_1" arrivalPos="194.42" arrivalSpeed="28.06" duration="41.00" routeLength="666.93" waitingTime="0.00" waitingCount="0" stopTime="0.00" timeLoss="15.46" rerouteNo="0" devices="tripinfo_140 fcd_140" vType="sedan" speedFactor="1.02" vaporized=""/>
    <tripinfo id="154" depart="47.00" departLane="688169646_0" departPos="4.60" departSpeed="0.00" departDelay="47.00" arrival="79.00" arrivalLane="688170737_0" arrivalPos="85.57" arrivalSpeed="24.45" duration="32.00" routeLength="588.49" waitingTime="0.00" waitingCount="0" stopTime="0.00" timeLoss="7.44" rerouteNo="0" devices="tripinfo_154 fcd_154" vType="sedan" speedFactor="0.89" vaporized=""/>
    <tripinfo id="157" depart="50.00" departLane="688169646_0" departPos="4.60" departSpeed="0.00" departDelay="50.00" arrival="80.00" arrivalLane="688170737_0" arrivalPos="85.57" arrivalSpeed="26.31" duration="30.00" routeLength="588.49" waitingTime="0.00" waitingCount="0" stopTime="0.00" timeLoss="10.29" rerouteNo="0" devices="tripinfo_157 fcd_157" vType="sedan" speedFactor="1.09" vaporized=""/>
    <tripinfo id="141" depart="40.00" departLane="688169646_0" departPos="4.60" departSpeed="0.00" departDelay="40.00" arrival="83.00" arrivalLane="672153002#6_1" arrivalPos="194.42" arrivalSpeed="26.03" duration="43.00" routeLength="666.93" waitingTime="0.00" waitingCount="0" stopTime="0.00" timeLoss="15.43" rerouteNo="0" devices="tripinfo_141 fcd_141" vType="sedan" speedFactor="0.97" vaporized=""/>
    <tripinfo id="146" depart="42.00" departLane="688169646_0" departPos="4.60" departSpeed="0.00" departDelay="42.00" arrival="86.00" arrivalLane="672153002#6_1" arrivalPos="194.42" arrivalSpeed="26.53" duration="44.00" routeLength="666.93" waitingTime="0.00" waitingCount="0" stopTime="0.00" timeLoss="17.08" rerouteNo="0" devices="tripinfo_146 fcd_146" vType="sedan" speedFactor="0.98" vaporized=""/>
    <tripinfo id="166" depart="58.00" departLane="688169646_0" departPos="4.60" departSpeed="0.00" departDelay="58.00" arrival="91.00" arrivalLane="672153002#5_1" arrivalPos="11.20" arrivalSpeed="24.61" duration="33.00" routeLength="472.21" waitingTime="0.00" waitingCount="0" stopTime="0.00" timeLoss="15.44" rerouteNo="0" devices="tripinfo_166 fcd_166" vType="sedan" speedFactor="1.10" vaporized=""/>
    <tripinfo id="164" depart="54.00" departLane="688169646_0" departPos="12.10" departSpeed="0.00" departDelay="54.00" arrival="93.00" arrivalLane="688170737_0" arrivalPos="85.57" arrivalSpeed="19.86" duration="39.00" routeLength="580.99" waitingTime="0.00" waitingCount="0" stopTime="0.00" timeLoss="9.95" rerouteNo="0" devices="tripinfo_164 fcd_164" vType="bus" speedFactor="0.91" vaporized=""/>
    <tripinfo id="174" depart="63.00" departLane="688169646_0" departPos="4.60" departSpeed="0.00" departDelay="63.00" arrival="94.00" arrivalLane="687375092#1_0" arrivalPos="3.01" arrivalSpeed="9.73" duration="31.00" routeLength="351.47" waitingTime="0.00" waitingCount="0" stopTime="0.00" timeLoss="15.15" rerouteNo="0" devices="tripinfo_174 fcd_174" vType="sedan" speedFactor="0.89" vaporized=""/>
    <tripinfo id="186" depart="69.00" departLane="688169646_0" departPos="4.60" departSpeed="0.00" departDelay="69.00" arrival="97.00" arrivalLane="688170737_0" arrivalPos="85.57" arrivalSpeed="30.18" duration="28.00" routeLength="588.49" waitingTime="0.00" waitingCount="0" stopTime="0.00" timeLoss="7.98" rerouteNo="0" devices="tripinfo_186 fcd_186" vType="sedan" speedFactor="1.10" vaporized=""/>
    <tripinfo id="170" depart="61.00" departLane="688169646_0" departPos="4.60" departSpeed="0.00" departDelay="61.00" arrival="103.00" arrivalLane="672153002#6_1" arrivalPos="194.42" arrivalSpeed="25.69" duration="42.00" routeLength="666.93" waitingTime="0.00" waitingCount="0" stopTime="0.00" timeLoss="14.50" rerouteNo="0" devices="tripinfo_170 fcd_170" vType="sedan" speedFactor="0.97" vaporized=""/>
    <tripinfo id="199" depart="76.00" departLane="688169646_0" departPos="4.60" departSpeed="0.00" departDelay="76.00" arrival="103.00" arrivalLane="687376010#3_0" arrivalPos="12.66" arrivalSpeed="17.29" duration="27.00" routeLength="391.84" waitingTime="0.00" waitingCount="0" stopTime="0.00" timeLoss="11.25" rerouteNo="0" devices="tripinfo_199 fcd_199" vType="sedan" speedFactor="0.99" vaporized=""/>
    <tripinfo id="180" depart="66.00" departLane="688169646_0" departPos="4.60" departSpeed="0.00" departDelay="66.00" arrival="111.00" arrivalLane="672153002#6_1" arrivalPos="194.42" arrivalSpeed="26.15" duration="45.00" routeLength="666.93" waitingTime="0.00" waitingCount="0" stopTime="0.00" timeLoss="17.49" rerouteNo="0" devices="tripinfo_180 fcd_180" vType="sedan" speedFactor="0.96" vaporized=""/>
    <tripinfo id="188" depart="72.00" departLane="688169646_0" departPos="4.60" departSpeed="0.00" departDelay="72.00" arrival="114.00" arrivalLane="672153002#6_1" arrivalPos="194.42" arrivalSpeed="27.27" duration="42.00" routeLength="666.93" waitingTime="0.00" waitingCount="0" stopTime="0.00" timeLoss="15.83" rerouteNo="0" devices="tripinfo_188 fcd_188" vType="sedan" speedFactor="1.01" vaporized=""/>
    <tripinfo id="44" depart="12.00" departLane="412441780#0_0" departPos="4.60" departSpeed="0.00" departDelay="12.00" arrival="115.00" arrivalLane="412441780#1_0" arrivalPos="2.78" arrivalSpeed="6.33" duration="103.00" routeLength="79.82" waitingTime="86.00" waitingCount="1" stopTime="0.00" timeLoss="99.11" rerouteNo="0" devices="tripinfo_44 fcd_44" vType="sedan" speedFactor="0.93" vaporized=""/>
    <tripinfo id="190" depart="74.00" departLane="688169646_0" departPos="4.60" departSpeed="0.00" departDelay="74.00" arrival="116.00" arrivalLane="672153002#6_1" arrivalPos="194.42" arrivalSpeed="29.85" duration="42.00" routeLength="666.93" waitingTime="0.00" waitingCount="0" stopTime="0.00" timeLoss="18.22" rerouteNo="0" devices="tripinfo_190 fcd_190" vType="sedan" speedFactor="1.10" vaporized=""/>
    <tripinfo id="53" depart="17.00" departLane="412441780#0_0" departPos="4.60" departSpeed="0.00" departDelay="17.00" arrival="123.00" arrivalLane="687376010#1_0" arrivalPos="8.52" arrivalSpeed="15.14" duration="106.00" routeLength="128.01" waitingTime="84.00" waitingCount="1" stopTime="0.00" timeLoss="100.10" rerouteNo="0" devices="tripinfo_53 fcd_53" vType="sedan" speedFactor="0.99" vaporized=""/>
    <tripinfo id="114" depart="0.00" departLane="412441780#1_0" departPos="2.78" departSpeed="0.00" departDelay="0.00" arrival="123.00" arrivalLane="688199692_0" arrivalPos="15.32" arrivalSpeed="8.95" duration="123.00" routeLength="112.51" waitingTime="109.00" waitingCount="1" stopTime="0.00" timeLoss="116.30" rerouteNo="0" devices="tripinfo_114 fcd_114" vType="sedan" speedFactor="0.99" vaporized=""/>
    <tripinfo id="13" depart="3.00" departLane="412441780#0_0" departPos="4.60" departSpeed="0.00" departDelay="3.00" arrival="124.00" arrivalLane="672153002#4_0" arrivalPos="20.65" arrivalSpeed="20.45" duration="121.00" routeLength="197.38" waitingTime="95.00" waitingCount="1" stopTime="0.00" timeLoss="110.36" rerouteNo="0" devices="tripinfo_13 fcd_13" vType="sedan" speedFactor="0.86" vaporized=""/>
    <tripinfo id="88" depart="27.00" departLane="412441780#0_0" departPos="4.60" departSpeed="0.00" departDelay="27.00" arrival="128.00" arrivalLane="687376010#1_0" arrivalPos="8.52" arrivalSpeed="18.02" duration="101.00" routeLength="128.01" waitingTime="80.00" waitingCount="1" stopTime="0.00" timeLoss="95.07" rerouteNo="0" devices="tripinfo_88 fcd_88" vType="sedan" speedFactor="1.00" vaporized=""/>
    <tripinfo id="6" depart="0.00" departLane="412441780#0_0" departPos="4.60" departSpeed="0.00" departDelay="0.00" arrival="129.00" arrivalLane="672153002#6_0" arrivalPos="194.42" arrivalSpeed="28.50" duration="129.00" routeLength="412.50" waitingTime="96.00" waitingCount="1" stopTime="0.00" timeLoss="112.40" rerouteNo="0" devices="tripinfo_6 fcd_6" vType="sedan" speedFactor="1.03" vaporized=""/>
    <tripinfo id="22" depart="6.00" departLane="412441780#0_0" departPos="4.60" departSpeed="0.00" departDelay="6.00" arrival="132.00" arrivalLane="672153002#6_1" arrivalPos="194.42" arrivalSpeed="25.39" duration="126.00" routeLength="417.72" waitingTime="93.00" waitingCount="1" stopTime="0.00" timeLoss="107.23" rerouteNo="0" devices="tripinfo_22 fcd_22" vType="sedan" speedFactor="0.93" vaporized=""/>
    <tripinfo id="67" depart="19.00" departLane="412441780#0_0" departPos="4.60" departSpeed="0.00" departDelay="19.00" arrival="133.00" arrivalLane="687376010#4_0" arrivalPos="64.56" arrivalSpeed="22.55" duration="114.00" routeLength="263.73" waitingTime="84.00" waitingCount="2" stopTime="0.00" timeLoss="102.06" rerouteNo="0" devices="tripinfo_67 fcd_67" vType="sedan" speedFactor="1.04" vaporized=""/>
    <tripinfo id="275" depart="118.00" departLane="688169646_0" departPos="4.60" departSpeed="0.00" departDelay="118.00" arrival="134.00" arrivalLane="688169646_0" arrivalPos="229.26" arrivalSpeed="23.43" duration="16.00" routeLength="224.66" waitingTime="0.00" waitingCount="0" stopTime="0.00" timeLoss="6.43" rerouteNo="0" devices="tripinfo_275 fcd_275" vType="sedan" speedFactor="0.88" vaporized=""/>
    <tripinfo id="23" depart="9.00" departLane="412441780#0_0" departPos="4.60" departSpeed="0.00" departDelay="9.00" arrival="135.00" arrivalLane="672153002#6_1" arrivalPos="194.42" arrivalSpeed="24.23" duration="126.00" routeLength="417.72" waitingTime="91.00" waitingCount="1" stopTime="0.00" timeLoss="105.79" rerouteNo="0" devices="tripinfo_23 fcd_23" vType="sedan" speedFactor="0.88" vaporized=""/>
    <tripinfo id="50" depart="15.00" departLane="412441780#0_0" departPos="4.60" departSpeed="0.00" departDelay="15.00" arrival="135.00" arrivalLane="688170737_2" arrivalPos="85.57" arrivalSpeed="31.03" duration="120.00" routeLength="374.97" waitingTime="87.00" waitingCount="1" stopTime="0.00" timeLoss="106.28" rerouteNo="0" devices="tripinfo_50 fcd_50" vType="sedan" speedFactor="1.15" vaporized=""/>