<?xml version="1.0" encoding="UTF-8"?>

<!-- generated on 2025-01-06 23:33:08 by Eclipse SUMO sumo Version 1.19.0
<configuration xmlns:xsi="http://www.w3.org/2001/XMLSchema-instance" xsi:noNamespaceSchemaLocation="http://sumo.dlr.de/xsd/sumoConfiguration.xsd">

    <input>
        <net-file value="C:\Program Files (x86)\Eclipse\Sumo\bin\simulation13\city_network.net.xml"/>
        <route-files value="C:\Program Files (x86)\Eclipse\Sumo\bin\simulation13\bashiti_routes_removed.rou.xml"/>
        <additional-files value="C:\Program Files (x86)\Eclipse\Sumo\bin\simulation13\tls_e3_detectors.add.xml,C:\Program Files (x86)\Eclipse\Sumo\bin\simulation13\ tls_e2_detectors.add.xml,C:\Program Files (x86)\Eclipse\Sumo\bin\simulation13\ tls_e1_detectors.add.xml"/>
    </input>

    <output>
        <fcd-output value="C:\Program Files (x86)\Eclipse\Sumo\bin\simulation13\output.fcd.xml"/>
        <summary-output value="C:\Program Files (x86)\Eclipse\Sumo\bin\simulation13\city_summary.xml"/>
        <tripinfo-output value="C:\Program Files (x86)\Eclipse\Sumo\bin\simulation13\output.tripinfo.xml"/>
        <edgedata-output value="C:\Program Files (x86)\Eclipse\Sumo\bin\simulation13\output.edgeData.xml"/>
    </output>

    <time>
        <begin value="0"/>
        <end value="20000"/>
    </time>

    <processing>
        <time-to-teleport value="-1"/>
    </processing>

    <report>
        <verbose value="true"/>
        <no-warnings value="true"/>
        <no-step-log value="true"/>
    </report>

    <traci_server>
        <remote-port value="59141"/>
    </traci_server>

    <gui_only>
        <quit-on-end value="true"/>
        <start value="true"/>
    </gui_only>

</configuration>
-->

<tripinfos xmlns:xsi="http://www.w3.org/2001/XMLSchema-instance" xsi:noNamespaceSchemaLocation="http://sumo.dlr.de/xsd/tripinfo_file.xsd">
    <tripinfo id="17" depart="0.00" departLane="687376010#4_0" departPos="4.60" departSpeed="0.00" departDelay="0.00" arrival="8.00" arrivalLane="687376010#4_0" arrivalPos="64.56" arrivalSpeed="15.43" duration="8.00" routeLength="59.96" waitingTime="0.00" waitingCount="0" stopTime="0.00" timeLoss="4.97" rerouteNo="0" devices="tripinfo_17 fcd_17" vType="sedan" speedFactor="1.05" vaporized=""/>
    <tripinfo id="15" depart="0.00" departLane="688170737_0" departPos="4.60" departSpeed="0.00" departDelay="0.00" arrival="9.00" arrivalLane="688170737_0" arrivalPos="85.57" arrivalSpeed="15.83" duration="9.00" routeLength="80.97" waitingTime="0.00" waitingCount="0" stopTime="0.00" timeLoss="6.15" rerouteNo="0" devices="tripinfo_15 fcd_15" vType="sedan" speedFactor="1.03" vaporized=""/>
    <tripinfo id="70" depart="3.00" departLane="687376010#4_0" departPos="4.60" departSpeed="0.00" departDelay="3.00" arrival="12.00" arrivalLane="687376010#4_0" arrivalPos="64.56" arrivalSpeed="16.08" duration="9.00" routeLength="59.96" waitingTime="0.00" waitingCount="0" stopTime="0.00" timeLoss="5.58" rerouteNo="0" devices="tripinfo_70 fcd_70" vType="sedan" speedFactor="1.00" vaporized=""/>
    <tripinfo id="76" depart="6.00" departLane="687376010#4_0" departPos="4.60" departSpeed="0.00" departDelay="6.00" arrival="14.00" arrivalLane="687376010#4_0" arrivalPos="64.56" arrivalSpeed="15.00" duration="8.00" routeLength="59.96" waitingTime="0.00" waitingCount="0" stopTime="0.00" timeLoss="4.71" rerouteNo="0" devices="tripinfo_76 fcd_76" vType="sedan" speedFactor="0.85" vaporized=""/>
    <tripinfo id="238" depart="0.00" departLane="688169643#1_0" departPos="0.20" departSpeed="0.00" departDelay="0.00" arrival="15.00" arrivalLane="688170737_0" arrivalPos="85.57" arrivalSpeed="29.28" duration="15.00" routeLength="246.21" waitingTime="0.00" waitingCount="0" stopTime="0.00" timeLoss="7.37" rerouteNo="0" devices="tripinfo_238 fcd_238" vType="sedan" speedFactor="1.16" vaporized=""/>
    <tripinfo id="175" depart="0.00" departLane="688199692_0" departPos="4.60" departSpeed="0.00" departDelay="0.00" arrival="16.00" arrivalLane="687376010#4_0" arrivalPos="64.56" arrivalSpeed="15.50" duration="16.00" routeLength="107.21" waitingTime="0.00" waitingCount="0" stopTime="0.00" timeLoss="8.86" rerouteNo="0" devices="tripinfo_175 fcd_175" vType="sedan" speedFactor="1.07" vaporized=""/>
    <tripinfo id="28" depart="0.00" departLane="50437158_0" departPos="4.60" departSpeed="0.00" departDelay="0.00" arrival="18.00" arrivalLane="688170737_0" arrivalPos="85.57" arrivalSpeed="27.32" duration="18.00" routeLength="255.05" waitingTime="0.00" waitingCount="0" stopTime="0.00" timeLoss="7.75" rerouteNo="0" devices="tripinfo_28 fcd_28" vType="sedan" speedFactor="1.02" vaporized=""/>
    <tripinfo id="196" depart="1.00" departLane="672153002#0_0" departPos="0.20" departSpeed="0.00" departDelay="1.00" arrival="18.00" arrivalLane="687376010#4_1" arrivalPos="64.56" arrivalSpeed="25.02" duration="17.00" routeLength="168.21" waitingTime="4.00" waitingCount="1" stopTime="0.00" timeLoss="10.13" rerouteNo="0" devices="tripinfo_196 fcd_196" vType="sedan" speedFactor="1.18" vaporized=""/>
    <tripinfo id="34" depart="0.00" departLane="672153002#3_0" departPos="4.60" departSpeed="0.00" departDelay="0.00" arrival="19.00" arrivalLane="672153002#6_0" arrivalPos="194.42" arrivalSpeed="23.42" duration="19.00" routeLength="292.54" waitingTime="0.00" waitingCount="0" stopTime="0.00" timeLoss="6.26" rerouteNo="0" devices="tripinfo_34 fcd_34" vType="sedan" speedFactor="0.89" vaporized=""/>
    <tripinfo id="120" depart="11.00" departLane="687376010#4_0" departPos="4.60" departSpeed="0.00" departDelay="11.00" arrival="19.00" arrivalLane="687376010#4_0" arrivalPos="64.56" arrivalSpeed="16.46" duration="8.00" routeLength="59.96" waitingTime="0.00" waitingCount="0" stopTime="0.00" timeLoss="4.85" rerouteNo="0" devices="tripinfo_120 fcd_120" vType="sedan" speedFactor="1.04" vaporized=""/>
    <tripinfo id="58" depart="0.00" departLane="672153002#0_0" departPos="0.20" departSpeed="0.00" departDelay="0.00" arrival="20.00" arrivalLane="688170737_2" arrivalPos="85.57" arrivalSpeed="32.62" duration="20.00" routeLength="279.45" waitingTime="2.00" waitingCount="1" stopTime="0.00" timeLoss="9.16" rerouteNo="0" devices="tripinfo_58 fcd_58" vType="sedan" speedFactor="1.18" vaporized=""/>
    <tripinfo id="13" depart="3.00" departLane="412441780#0_0" departPos="4.60" departSpeed="0.00" departDelay="3.00" arrival="23.00" arrivalLane="672153002#4_0" arrivalPos="20.65" arrivalSpeed="20.88" duration="20.00" routeLength="197.38" waitingTime="0.00" waitingCount="0" stopTime="0.00" timeLoss="9.67" rerouteNo="0" devices="tripinfo_13 fcd_13" vType="sedan" speedFactor="0.86" vaporized=""/>
    <tripinfo id="114" depart="0.00" departLane="412441780#1_0" departPos="2.78" departSpeed="0.00" departDelay="0.00" arrival="23.00" arrivalLane="688199692_0" arrivalPos="15.32" arrivalSpeed="10.94" duration="23.00" routeLength="112.51" waitingTime="9.00" waitingCount="1" stopTime="0.00" timeLoss="16.02" rerouteNo="0" devices="tripinfo_114 fcd_114" vType="sedan" speedFactor="0.99" vaporized=""/>
    <tripinfo id="49" depart="0.00" departLane="688199688#1_0" departPos="4.60" departSpeed="0.00" departDelay="0.00" arrival="26.00" arrivalLane="688170737_0" arrivalPos="85.57" arrivalSpeed="20.34" duration="26.00" routeLength="150.26" waitingTime="6.00" waitingCount="1" stopTime="0.00" timeLoss="18.49" rerouteNo="0" devices="tripinfo_49 fcd_49" vType="sedan" speedFactor="1.18" vaporized=""/>
    <tripinfo id="182" depart="15.00" departLane="687376010#4_0" departPos="12.10" departSpeed="0.00" departDelay="15.00" arrival="26.00" arrivalLane="687376010#4_0" arrivalPos="64.56" arrivalSpeed="10.66" duration="11.00" routeLength="52.46" waitingTime="0.00" waitingCount="0" stopTime="0.00" timeLoss="8.04" rerouteNo="0" devices="tripinfo_182 fcd_182" vType="bus" speedFactor="0.93" vaporized=""/>
    <tripinfo id="6" depart="0.00" departLane="412441780#0_0" departPos="4.60" departSpeed="0.00" departDelay="0.00" arrival="29.00" arrivalLane="672153002#6_0" arrivalPos="194.42" arrivalSpeed="28.52" duration="29.00" routeLength="412.50" waitingTime="0.00" waitingCount="0" stopTime="0.00" timeLoss="12.27" rerouteNo="0" devices="tripinfo_6 fcd_6" vType="sedan" speedFactor="1.03" vaporized=""/>
    <tripinfo id="198" depart="21.00" departLane="687376010#4_0" departPos="10.10" departSpeed="0.00" departDelay="21.00" arrival="33.00" arrivalLane="687376010#4_0" arrivalPos="64.56" arrivalSpeed="9.49" duration="12.00" routeLength="54.46" waitingTime="0.00" waitingCount="0" stopTime="0.00" timeLoss="9.31" rerouteNo="0" devices="tripinfo_198 fcd_198" vType="truck" speedFactor="1.00" vaporized=""/>
    <tripinfo id="235" depart="26.00" departLane="687376010#4_0" departPos="4.60" departSpeed="0.00" departDelay="26.00" arrival="35.00" arrivalLane="687376010#4_0" arrivalPos="64.56" arrivalSpeed="11.84" duration="9.00" routeLength="59.96" waitingTime="0.00" waitingCount="0" stopTime="0.00" timeLoss="6.43" rerouteNo="0" devices="tripinfo_235 fcd_235" vType="sedan" speedFactor="1.11" vaporized=""/>
    <tripinfo id="251" depart="29.00" departLane="687376010#4_0" departPos="4.60" departSpeed="0.00" departDelay="29.00" arrival="37.00" arrivalLane="687376010#4_0" arrivalPos="64.56" arrivalSpeed="14.89" duration="8.00" routeLength="59.96" waitingTime="0.00" waitingCount="0" stopTime="0.00" timeLoss="5.32" rerouteNo="0" devices="tripinfo_251 fcd_251" vType="sedan" speedFactor="1.14" vaporized=""/>
    <tripinfo id="5" depart="1.00" departLane="50437161_0" departPos="4.60" departSpeed="0.00" departDelay="1.00" arrival="39.00" arrivalLane="687376010#4_1" arrivalPos="64.56" arrivalSpeed="22.87" duration="38.00" routeLength="327.55" waitingTime="3.00" waitingCount="1" stopTime="0.00" timeLoss="22.47" rerouteNo="0" devices="tripinfo_5 fcd_5" vType="sedan" speedFactor="1.08" vaporized=""/>
    <tripinfo id="1" depart="0.00" departLane="50437161_0" departPos="4.60" departSpeed="0.00" departDelay="0.00" arrival="41.00" arrivalLane="672153002#6_1" arrivalPos="194.42" arrivalSpeed="29.11" duration="41.00" routeLength="494.32" waitingTime="6.00" waitingCount="1" stopTime="0.00" timeLoss="21.39" rerouteNo="0" devices="tripinfo_1 fcd_1" vType="sedan" speedFactor="1.06" vaporized=""/>
    <tripinfo id="30" depart="0.00" departLane="688214482_0" departPos="12.10" departSpeed="0.00" departDelay="0.00" arrival="42.00" arrivalLane="688170737_0" arrivalPos="85.57" arrivalSpeed="19.91" duration="42.00" routeLength="311.23" waitingTime="9.00" waitingCount="1" stopTime="0.00" timeLoss="25.48" rerouteNo="0" devices="tripinfo_30 fcd_30" vType="bus" speedFactor="1.01" vaporized=""/>
    <tripinfo id="288" depart="53.00" departLane="687376010#4_0" departPos="4.60" departSpeed="0.00" departDelay="0.00" arrival="61.00" arrivalLane="687376010#4_0" arrivalPos="64.56" arrivalSpeed="13.69" duration="8.00" routeLength="59.96" waitingTime="0.00" waitingCount="0" stopTime="0.00" timeLoss="5.06" rerouteNo="0" devices="tripinfo_288 fcd_288" vType="sedan" speedFactor="0.94" vaporized=""/>
    <tripinfo id="52" depart="13.00" departLane="50437161_0" departPos="4.60" departSpeed="0.00" departDelay="13.00" arrival="70.00" arrivalLane="688170737_0" arrivalPos="85.57" arrivalSpeed="31.75" duration="57.00" routeLength="405.18" waitingTime="25.00" waitingCount="1" stopTime="0.00" timeLoss="42.49" rerouteNo="0" devices="tripinfo_52 fcd_52" vType="sedan" speedFactor="1.17" vaporized=""/>
    <tripinfo id="71" depart="16.00" departLane="50437161_0" departPos="4.60" departSpeed="0.00" departDelay="16.00" arrival="73.00" arrivalLane="688170737_0" arrivalPos="85.57" arrivalSpeed="24.34" duration="57.00" routeLength="399.95" waitingTime="23.00" waitingCount="1" stopTime="0.00" timeLoss="37.76" rerouteNo="0" devices="tripinfo_71 fcd_71" vType="sedan" speedFactor="0.90" vaporized=""/>
    <tripinfo id="105" depart="27.00" departLane="50437161_0" departPos="4.60" departSpeed="0.00" departDelay="27.00" arrival="73.00" arrivalLane="688170737_1" arrivalPos="85.57" arrivalSpeed="29.73" duration="46.00" routeLength="405.18" waitingTime="13.00" waitingCount="1" stopTime="0.00" timeLoss="29.83" rerouteNo="0" devices="tripinfo_105 fcd_105" vType="sedan" speedFactor="1.08" vaporized=""/>
    <tripinfo id="8" depart="3.00" departLane="50437161_0" departPos="4.60" departSpeed="0.00" departDelay="3.00" arrival="74.00" arrivalLane="687376010#4_1" arrivalPos="64.56" arrivalSpeed="22.42" duration="71.00" routeLength="327.55" waitingTime="27.00" waitingCount="2" stopTime="0.00" timeLoss="54.49" rerouteNo="0" devices="tripinfo_8 fcd_8" vType="sedan" speedFactor="1.05" vaporized=""/>
    <tripinfo id="83" depart="21.00" departLane="50437161_0" departPos="4.60" departSpeed="0.00" departDelay="21.00" arrival="75.00" arrivalLane="688170737_0" arrivalPos="85.57" arrivalSpeed="27.46" duration="54.00" routeLength="399.95" waitingTime="20.00" waitingCount="1" stopTime="0.00" timeLoss="37.08" rerouteNo="0" devices="tripinfo_83 fcd_83" vType="sedan" speedFactor="1.02" vaporized=""/>
    <tripinfo id="27" depart="11.00" departLane="688169646_0" departPos="4.60" departSpeed="0.00" departDelay="11.00" arrival="79.00" arrivalLane="688169643#2_1" arrivalPos="131.30" arrivalSpeed="25.54" duration="68.00" routeLength="488.31" waitingTime="33.00" waitingCount="1" stopTime="0.00" timeLoss="52.45" rerouteNo="0" devices="tripinfo_27 fcd_27" vType="sedan" speedFactor="1.16" vaporized=""/>
    <tripinfo id="37" depart="14.00" departLane="688169646_0" departPos="4.60" departSpeed="0.00" departDelay="14.00" arrival="79.00" arrivalLane="687375092#1_0" arrivalPos="3.01" arrivalSpeed="10.36" duration="65.00" routeLength="351.47" waitingTime="31.00" waitingCount="1" stopTime="0.00" timeLoss="49.87" rerouteNo="0" devices="tripinfo_37 fcd_37" vType="sedan" speedFactor="0.92" vaporized=""/>
    <tripinfo id="10" depart="6.00" departLane="688169646_0" departPos="4.60" departSpeed="0.00" departDelay="6.00" arrival="81.00" arrivalLane="688170737_2" arrivalPos="85.57" arrivalSpeed="24.25" duration="75.00" routeLength="588.49" waitingTime="34.00" waitingCount="1" stopTime="0.00" timeLoss="51.04" rerouteNo="0" devices="tripinfo_10 fcd_10" vType="sedan" speedFactor="0.89" vaporized=""/>
    <tripinfo id="2" depart="0.00" departLane="688169646_0" departPos="4.60" departSpeed="0.00" departDelay="0.00" arrival="82.00" arrivalLane="688170737_1" arrivalPos="85.57" arrivalSpeed="25.86" duration="82.00" routeLength="588.49" waitingTime="41.00" waitingCount="1" stopTime="0.00" timeLoss="58.75" rerouteNo="0" devices="tripinfo_2 fcd_2" vType="sedan" speedFactor="0.94" vaporized=""/>
    <tripinfo id="116" depart="0.00" departLane="688169644#0_0" departPos="4.60" departSpeed="0.00" departDelay="0.00" arrival="82.00" arrivalLane="688170737_0" arrivalPos="85.57" arrivalSpeed="23.28" duration="82.00" routeLength="290.06" waitingTime="60.00" waitingCount="1" stopTime="0.00" timeLoss="70.07" rerouteNo="0" devices="tripinfo_116 fcd_116" vType="sedan" speedFactor="0.88" vaporized=""/>
    <tripinfo id="7" depart="3.00" departLane="688169646_0" departPos="4.60" departSpeed="0.00" departDelay="3.00" arrival="83.00" arrivalLane="687376010#4_0" arrivalPos="64.56" arrivalSpeed="17.53" duration="80.00" routeLength="464.67" waitingTime="39.00" waitingCount="1" stopTime="0.00" timeLoss="57.08" rerouteNo="0" devices="tripinfo_7 fcd_7" vType="sedan" speedFactor="0.83" vaporized=""/>
    <tripinfo id="26" depart="6.00" departLane="50437161_0" departPos="12.10" departSpeed="0.00" departDelay="6.00" arrival="83.00" arrivalLane="688199690_0" arrivalPos="19.74" arrivalSpeed="7.15" duration="77.00" routeLength="272.66" waitingTime="26.00" waitingCount="1" stopTime="0.00" timeLoss="59.08" rerouteNo="0" devices="tripinfo_26 fcd_26" vType="bus" speedFactor="0.94" vaporized=""/>
    <tripinfo id="90" depart="28.00" departLane="688169646_0" departPos="4.60" departSpeed="0.00" departDelay="28.00" arrival="84.00" arrivalLane="688170737_2" arrivalPos="85.57" arrivalSpeed="24.64" duration="56.00" routeLength="588.49" waitingTime="14.00" waitingCount="1" stopTime="0.00" timeLoss="31.50" rerouteNo="0" devices="tripinfo_90 fcd_90" vType="sedan" speedFactor="0.90" vaporized=""/>
    <tripinfo id="51" depart="16.00" departLane="688169646_0" departPos="4.60" departSpeed="0.00" departDelay="16.00" arrival="85.00" arrivalLane="687376010#4_0" arrivalPos="64.56" arrivalSpeed="21.58" duration="69.00" routeLength="464.67" waitingTime="28.00" waitingCount="1" stopTime="0.00" timeLoss="49.54" rerouteNo="0" devices="tripinfo_51 fcd_51" vType="sedan" speedFactor="1.01" vaporized=""/>
    <tripinfo id="154" depart="51.00" departLane="688169646_0" departPos="4.60" departSpeed="0.00" departDelay="51.00" arrival="85.00" arrivalLane="688170737_1" arrivalPos="85.57" arrivalSpeed="24.36" duration="34.00" routeLength="588.49" waitingTime="0.00" waitingCount="0" stopTime="0.00" timeLoss="9.59" rerouteNo="0" devices="tripinfo_154 fcd_154" vType="sedan" speedFactor="0.89" vaporized=""/>
    <tripinfo id="59" depart="0.00" departLane="688169645_0" departPos="4.60" departSpeed="0.00" departDelay="0.00" arrival="86.00" arrivalLane="672153002#6_1" arrivalPos="194.42" arrivalSpeed="29.43" duration="86.00" routeLength="437.37" waitingTime="53.00" waitingCount="1" stopTime="0.00" timeLoss="69.76" rerouteNo="0" devices="tripinfo_59 fcd_59" vType="sedan" speedFactor="1.10" vaporized=""/>
    <tripinfo id="60" depart="19.00" departLane="688169646_0" departPos="4.60" departSpeed="0.00" departDelay="19.00" arrival="88.00" arrivalLane="687376010#4_0" arrivalPos="64.56" arrivalSpeed="19.40" duration="69.00" routeLength="464.67" waitingTime="28.00" waitingCount="1" stopTime="0.00" timeLoss="46.96" rerouteNo="0" devices="tripinfo_60 fcd_60" vType="sedan" speedFactor="0.90" vaporized=""/>
    <tripinfo id="24" depart="9.00" departLane="688169646_0" departPos="4.60" departSpeed="0.00" departDelay="9.00" arrival="91.00" arrivalLane="672153002#6_1" arrivalPos="194.42" arrivalSpeed="25.39" duration="82.00" routeLength="666.93" waitingTime="36.00" waitingCount="1" stopTime="0.00" timeLoss="54.22" rerouteNo="0" devices="tripinfo_24 fcd_24" vType="sedan" speedFactor="0.94" vaporized=""/>
    <tripinfo id="139" depart="36.00" departLane="50437161_0" departPos="4.60" departSpeed="0.00" departDelay="36.00" arrival="92.00" arrivalLane="688169643#2_0" arrivalPos="131.30" arrivalSpeed="25.19" duration="56.00" routeLength="305.00" waitingTime="22.00" waitingCount="2" stopTime="0.00" timeLoss="42.86" rerouteNo="0" devices="tripinfo_139 fcd_139" vType="sedan" speedFactor="1.00" vaporized=""/>
    <tripinfo id="69" depart="24.00" departLane="688169646_0" departPos="4.60" departSpeed="0.00" departDelay="24.00" arrival="94.00" arrivalLane="672153002#6_1" arrivalPos="194.42" arrivalSpeed="29.95" duration="70.00" routeLength="666.93" waitingTime="20.00" waitingCount="1" stopTime="0.00" timeLoss="46.64" rerouteNo="0" devices="tripinfo_69 fcd_69" vType="sedan" speedFactor="1.09" vaporized=""/>
    <tripinfo id="168" depart="40.00" departLane="50437161_0" departPos="4.60" departSpeed="0.00" departDelay="40.00" arrival="99.00" arrivalLane="688170737_1" arrivalPos="85.57" arrivalSpeed="26.34" duration="59.00" routeLength="405.18" waitingTime="20.00" waitingCount="2" stopTime="0.00" timeLoss="41.17" rerouteNo="0" devices="tripinfo_168 fcd_168" vType="sedan" speedFactor="0.96" vaporized=""/>
    <tripinfo id="35" depart="10.00" departLane="50437161_0" departPos="4.60" departSpeed="0.00" departDelay="10.00" arrival="103.00" arrivalLane="688199690_0" arrivalPos="19.74" arrivalSpeed="8.12" duration="93.00" routeLength="280.16" waitingTime="41.00" waitingCount="2" stopTime="0.00" timeLoss="73.30" rerouteNo="0" devices="tripinfo_35 fcd_35" vType="sedan" speedFactor="0.83" vaporized=""/>
    <tripinfo id="44" depart="12.00" departLane="412441780#0_0" departPos="4.60" departSpeed="0.00" departDelay="12.00" arrival="103.00" arrivalLane="412441780#1_0" arrivalPos="2.78" arrivalSpeed="5.93" duration="91.00" routeLength="79.82" waitingTime="77.00" waitingCount="1" stopTime="0.00" timeLoss="87.01" rerouteNo="0" devices="tripinfo_44 fcd_44" vType="sedan" speedFactor="0.93" vaporized=""/>
    <tripinfo id="122" depart="31.00" departLane="50437161_0" departPos="12.10" departSpeed="0.00" departDelay="31.00" arrival="103.00" arrivalLane="688170737_0" arrivalPos="85.57" arrivalSpeed="19.83" duration="72.00" routeLength="392.45" waitingTime="25.00" waitingCount="2" stopTime="0.00" timeLoss="51.59" rerouteNo="0" devices="tripinfo_122 fcd_122" vType="bus" speedFactor="1.02" vaporized=""/>
    <tripinfo id="21" depart="5.00" departLane="50437161_0" departPos="4.60" departSpeed="0.00" departDelay="5.00" arrival="104.00" arrivalLane="672153002#6_1" arrivalPos="194.42" arrivalSpeed="26.90" duration="99.00" routeLength="494.32" waitingTime="42.00" waitingCount="3" stopTime="0.00" timeLoss="77.75" rerouteNo="0" devices="tripinfo_21 fcd_21" vType="sedan" speedFactor="0.99" vaporized=""/>
    <tripinfo id="22" depart="6.00" departLane="412441780#0_0" departPos="4.60" departSpeed="0.00" departDelay="6.00" arrival="120.00" arrivalLane="672153002#6_1" arrivalPos="194.42" arrivalSpeed="25.70" duration="114.00" routeLength="417.72" waitingTime="83.00" waitingCount="1" stopTime="0.00" timeLoss="95.57" rerouteNo="0" devices="tripinfo_22 fcd_22" vType="sedan" speedFactor="0.93" vaporized=""/>
    <tripinfo id="23" depart="9.00" departLane="412441780#0_0" departPos="4.60" departSpeed="0.00" departDelay="9.00" arrival="121.00" arrivalLane="672153002#6_0" arrivalPos="194.42" arrivalSpeed="23.30" duration="112.00" routeLength="412.50" waitingTime="79.00" waitingCount="1" stopTime="0.00" timeLoss="92.07" rerouteNo="0" devices="tripinfo_23 fcd_23" vType="sedan" speedFactor="0.88" vaporized=""/>
    <tripinfo id="50" depart="15.00" departLane="412441780#0_0" departPos="4.60" departSpeed="0.00" departDelay="15.00" arrival="122.00" arrivalLane="688170737_2" arrivalPos="85.57" arrivalSpeed="30.82" duration="107.00" routeLength="374.97" waitingTime="74.00" waitingCount="1" stopTime="0.00" timeLoss="92.53" rerouteNo="0" devices="tripinfo_50 fcd_50" vType="sedan" speedFactor="1.15" vaporized=""/>
    <tripinfo id="61" depart="21.00" departLane="688169646_0" departPos="4.60" departSpeed="0.00" departDelay="21.00" arrival="123.00" arrivalLane="687376010#4_0" arrivalPos="64.56" arrivalSpeed="22.43" duration="102.00" routeLength="464.67" waitingTime="57.00" waitingCount="2" stopTime="0.00" timeLoss="82.70" rerouteNo="0" devices="tripinfo_61 fcd_61" vType="sedan" speedFactor="1.03" vaporized=""/>
    <tripinfo id="157" depart="54.00" departLane="688169646_0" departPos="4.60" departSpeed="0.00" departDelay="54.00" arrival="126.00" arrivalLane="688170737_1" arrivalPos="85.57" arrivalSpeed="30.30" duration="72.00" routeLength="588.49" waitingTime="35.00" waitingCount="1" stopTime="0.00" timeLoss="51.50" rerouteNo="0" devices="tripinfo_157 fcd_157" vType="sedan" speedFactor="1.09" vaporized=""/>
    <tripinfo id="186" depart="71.00" departLane="688169646_0" departPos="4.60" departSpeed="0.00" departDelay="71.00" arrival="128.00" arrivalLane="688170737_2" arrivalPos="85.57" arrivalSpeed="29.56" duration="57.00" routeLength="588.49" waitingTime="16.00" waitingCount="1" stopTime="0.00" timeLoss="37.44" rerouteNo="0" devices="tripinfo_186 fcd_186" vType="sedan" speedFactor="1.10" vaporized=""/>
    <tripinfo id="134" depart="33.00" departLane="688169646_0" departPos="4.60" departSpeed="0.00" departDelay="33.00" arrival="132.00" arrivalLane="-688199688#1_0" arrivalPos="60.19" arrivalSpeed="14.30" duration="99.00" routeLength="559.26" waitingTime="45.00" waitingCount="2" stopTime="0.00" timeLoss="76.22" rerouteNo="0" devices="tripinfo_134 fcd_134" vType="sedan" speedFactor="1.03" vaporized=""/>
    <tripinfo id="136" depart="36.00" departLane="688169646_0" departPos="4.60" departSpeed="0.00" departDelay="36.00" arrival="132.00" arrivalLane="688199690_0" arrivalPos="19.74" arrivalSpeed="9.70" duration="96.00" routeLength="417.28" waitingTime="42.00" waitingCount="2" stopTime="0.00" timeLoss="76.36" rerouteNo="0" devices="tripinfo_136 fcd_136" vType="sedan" speedFactor="1.01" vaporized=""/>
    <tripinfo id="147" depart="48.00" departLane="688169646_0" departPos="4.60" departSpeed="0.00" departDelay="48.00" arrival="132.00" arrivalLane="687376010#4_0" arrivalPos="64.56" arrivalSpeed="21.17" duration="84.00" routeLength="464.67" waitingTime="34.00" waitingCount="2" stopTime="0.00" timeLoss="64.72" rerouteNo="0" devices="tripinfo_147 fcd_147" vType="sedan" speedFactor="1.00" vaporized=""/>
    <tripinfo id="124" depart="31.00" departLane="688169646_0" departPos="4.60" departSpeed="0.00" departDelay="31.00" arrival="133.00" arrivalLane="672153002#6_1" arrivalPos="194.42" arrivalSpeed="26.62" duration="102.00" routeLength="666.93" waitingTime="47.00" waitingCount="2" stopTime="0.00" timeLoss="75.19" rerouteNo="0" devices="tripinfo_124 fcd_124" vType="sedan" speedFactor="0.97" vaporized=""/>
    <tripinfo id="164" depart="58.00" departLane="688169646_0" departPos="12.10" departSpeed="0.00" departDelay="58.00" arrival="134.00" arrivalLane="688170737_1" arrivalPos="85.57" arrivalSpeed="19.72" duration="76.00" routeLength="580.99" waitingTime="22.00" waitingCount="1" stopTime="0.00" timeLoss="46.56" rerouteNo="0" devices="tripinfo_164 fcd_164" vType="bus" speedFactor="0.91" vaporized=""/>
    <tripinfo id="275" depart="118.00" departLane="688169646_0" departPos="4.60" departSpeed="0.00" departDelay="118.00" arrival="134.00" arrivalLane="688169646_0" arrivalPos="229.26" arrivalSpeed="23.63" duration="16.00" routeLength="224.66" waitingTime="0.00" waitingCount="0" stopTime="0.00" timeLoss="6.48" rerouteNo="0" devices="tripinfo_275 fcd_275" vType="sedan" speedFactor="0.88" vaporized=""/>
    <tripinfo id="140" depart="39.00" departLane="688169646_0" departPos="4.60" departSpeed="0.00" departDelay="39.00" arrival="135.00" arrivalLane="672153002#6_1" arrivalPos="194.42" arrivalSpeed="27.66" duration="96.00" routeLength="666.93" waitingTime="40.00" waitingCount="2" stopTime="0.00" timeLoss="70.46" rerouteNo="0" devices="tripinfo_140 fcd_140" vType="sedan" speedFactor="1.02" vaporized=""/>
    <tripinfo id="214" depart="93.00" departLane="688169646_0" departPos="12.10" departSpeed="0.00" departDelay="93.00" arrival="136.00" arrivalLane="688170737_1" arrivalPos="85.57" arrivalSpeed="19.71" duration="43.00" routeLength="580.99" waitingTime="0.00" waitingCount="0" stopTime="0.00" timeLoss="13.54" rerouteNo="0" devices="tripinfo_214 fcd_214" vType="bus" speedFactor="0.82" vaporized=""/>
    <tripinfo id="141" depart="42.00" departLane="688169646_0" departPos="4.60" departSpeed="0.00" departDelay="42.00" arrival="139.00" arrivalLane="672153002#6_1" arrivalPos="194.42" arrivalSpeed="26.28" duration="97.00" routeLength="666.93" waitingTime="37.00" waitingCount="2" stopTime="0.00" timeLoss="69.68" rerouteNo="0" devices="tripinfo_141 fcd_141" vType="sedan" speedFactor="0.97" vaporized=""/>
    <tripinfo id="146" depart="45.00" departLane="688169646_0" departPos="4.60" departSpeed="0.00" departDelay="45.00" arrival="140.00" arrivalLane="672153002#6_1" arrivalPos="194.42" arrivalSpeed="26.55" duration="95.00" routeLength="666.93" waitingTime="36.00" waitingCount="2" stopTime="0.00" timeLoss="68.92" rerouteNo="0" devices="tripinfo_146 fcd_146" vType="sedan" speedFactor="0.98" vaporized=""/>
    <tripinfo id="211" depart="47.00" departLane="50437161_0" departPos="4.60" departSpeed="0.00" departDelay="47.00" arrival="141.00" arrivalLane="688170737_0" arrivalPos="85.57" arrivalSpeed="31.45" duration="94.00" routeLength="405.18" waitingTime="53.00" waitingCount="2" stopTime="0.00" timeLoss="78.78" rerouteNo="0" devices="tripinfo_211 fcd_211" vType="sedan" speedFactor="1.15" vaporized=""/>
    <tripinfo id="227" depart="54.00" departLane="50437161_0" departPos="4.60" departSpeed="0.00" departDelay="54.00" arrival="142.00" arrivalLane="688170737_1" arrivalPos="85.57" arrivalSpeed="31.66" duration="88.00" routeLength="405.18" waitingTime="52.00" waitingCount="2" stopTime="0.00" timeLoss="74.20" rerouteNo="0" devices="tripinfo_227 fcd_227" vType="sedan" speedFactor="1.23" vaporized=""/>
    <tripinfo id="183" depart="43.00" departLane="50437161_0" departPos="4.60" departSpeed="0.00" departDelay="43.00" arrival="143.00" arrivalLane="688170737_0" arrivalPos="85.57" arrivalSpeed="23.61" duration="100.00" routeLength="399.95" waitingTime="52.00" waitingCount="3" stopTime="0.00" timeLoss="80.35" rerouteNo="0" devices="tripinfo_183 fcd_183" vType="sedan" speedFactor="0.87" vaporized=""/>
    <tripinfo id="218" depart="51.00" departLane="50437161_0" departPos="4.60" departSpeed="0.00" departDelay="51.00" arrival="145.00" arrivalLane="688170737_0" arrivalPos="85.57" arrivalSpeed="27.76" duration="94.00" routeLength="399.95" waitingTime="50.00" waitingCount="3" stopTime="0.00" timeLoss="76.53" rerouteNo="0" devices="tripinfo_218 fcd_218" vType="sedan" speedFactor="1.01" vaporized=""/>
    <tripinfo id="39" depart="11.00" departLane="50437161_0" departPos="4.60" departSpeed="0.00" departDelay="11.00" arrival="146.00" arrivalLane="672153002#6_1" arrivalPos="194.42" arrivalSpeed="30.71" duration="135.00" routeLength="494.32" waitingTime="76.00" waitingCount="4" stopTime="0.00" timeLoss="116.47" rerouteNo="0" devices="tripinfo_39 fcd_39" vType="sedan" speedFactor="1.13" vaporized=""/>
    <tripinfo id="233" depart="58.00" departLane="50437161_0" departPos="4.60" departSpeed="0.00" departDelay="58.00" arrival="146.00" arrivalLane="688170737_1" arrivalPos="85.57" arrivalSpeed="25.83" duration="88.00" routeLength="405.18" waitingTime="48.00" waitingCount="3" stopTime="0.00" timeLoss="69.85" rerouteNo="0" devices="tripinfo_233 fcd_233" vType="sedan" speedFactor="0.95" vaporized=""/>