<?xml version="1.0" encoding="UTF-8"?>

<!-- generated on 2024-12-23 21:38:11 by Eclipse SUMO GUI Version 1.19.0
<configuration xmlns:xsi="http://www.w3.org/2001/XMLSchema-instance" xsi:noNamespaceSchemaLocation="http://sumo.dlr.de/xsd/sumoConfiguration.xsd">

    <input>
        <net-file value="C:\Program Files (x86)\Eclipse\Sumo\bin\simulation12\city_network.net.xml"/>
        <route-files value="C:\Program Files (x86)\Eclipse\Sumo\bin\simulation12\updated_routes1.rou.xml"/>
        <additional-files value="C:\Program Files (x86)\Eclipse\Sumo\bin\simulation12\tls_e3_detectors.add.xml,C:\Program Files (x86)\Eclipse\Sumo\bin\simulation12\ tls_e2_detectors.add.xml,C:\Program Files (x86)\Eclipse\Sumo\bin\simulation12\ tls_e1_detectors.add.xml"/>
    </input>

    <output>
        <fcd-output value="C:\Program Files (x86)\Eclipse\Sumo\bin\simulation12\output.fcd.xml"/>
        <summary-output value="C:\Program Files (x86)\Eclipse\Sumo\bin\simulation12\city_summary.xml"/>
        <tripinfo-output value="C:\Program Files (x86)\Eclipse\Sumo\bin\simulation12\output.tripinfo.xml"/>
        <edgedata-output value="C:\Program Files (x86)\Eclipse\Sumo\bin\simulation12\output.edgeData.xml"/>
    </output>

    <time>
        <begin value="0"/>
        <end value="20000"/>
    </time>

    <report>
        <verbose value="true"/>
        <no-warnings value="true"/>
    </report>

</configuration>
-->

<meandata xmlns:xsi="http://www.w3.org/2001/XMLSchema-instance" xsi:noNamespaceSchemaLocation="http://sumo.dlr.de/xsd/meandata_file.xsd">
    <interval begin="0.00" end="20000.00" id="DEFAULT_EDGEDATA">
        <edge id="-154286264" sampledSeconds="169041.28" traveltime="631.98" overlapTraveltime="629.06" density="89.73" laneDensity="89.73" occupancy="48.00" waitingTime="162178.00" timeLoss="166977.28" speed="0.16" speedRelative="0.01" departed="247" arrived="25" entered="74" left="296" laneChangedFrom="0" laneChangedTo="0" teleported="2"/>
        <edge id="-688199688#1" sampledSeconds="578.94" traveltime="5.00" overlapTraveltime="5.43" density="0.48" laneDensity="0.48" occupancy="0.24" waitingTime="0.00" timeLoss="69.64" speed="12.13" speedRelative="0.87" departed="0" arrived="109" entered="109" left="0" laneChangedFrom="0" laneChangedTo="0"/>
        <edge id="154286264" sampledSeconds="22349.30" traveltime="230.14" overlapTraveltime="275.79" density="11.86" laneDensity="11.86" occupancy="5.62" waitingTime="21002.00" timeLoss="21710.89" speed="0.36" speedRelative="0.03" departed="50" arrived="27" entered="51" left="74" laneChangedFrom="0" laneChangedTo="0"/>
        <edge id="412441780#0" sampledSeconds="259999.20" traveltime="207.06" overlapTraveltime="227.42" density="195.69" laneDensity="97.85" occupancy="49.97" waitingTime="242047.00" timeLoss="256204.74" speed="0.32" speedRelative="0.01" departed="1570" arrived="19" entered="0" left="1551" laneChangedFrom="1087" laneChangedTo="1087"/>
        <edge id="412441780#1" sampledSeconds="36138.33" traveltime="19.67" overlapTraveltime="25.51" density="400.00" laneDensity="200.00" occupancy="60.88" waitingTime="33757.00" timeLoss="35299.90" speed="0.36" speedRelative="0.02" departed="49" arrived="27" entered="1551" left="1571" laneChangedFrom="27" laneChangedTo="27"/>
        <edge id="412441780#2" sampledSeconds="5706.51" traveltime="2.80" overlapTraveltime="6.27" density="400.00" laneDensity="200.00" occupancy="14.06" waitingTime="4316.00" timeLoss="5002.64" speed="1.53" speedRelative="0.07" departed="0" arrived="0" entered="1571" left="1570" laneChangedFrom="80" laneChangedTo="80" teleported="8"/>
        <edge id="50437157" sampledSeconds="51.27" traveltime="9.20" overlapTraveltime="9.17" density="0.12" laneDensity="0.12" occupancy="0.05" waitingTime="28.00" timeLoss="41.34" speed="2.87" speedRelative="0.13" departed="9" arrived="0" entered="0" left="9" laneChangedFrom="0" laneChangedTo="0"/>
        <edge id="50437158" sampledSeconds="72.77" traveltime="9.10" overlapTraveltime="8.36" density="0.28" laneDensity="0.28" occupancy="0.14" waitingTime="39.00" timeLoss="63.45" speed="2.20" speedRelative="0.10" departed="17" arrived="0" entered="0" left="17" laneChangedFrom="0" laneChangedTo="0"/>
        <edge id="50437161" sampledSeconds="146309.31" traveltime="178.46" overlapTraveltime="186.32" density="90.57" laneDensity="30.19" occupancy="16.88" waitingTime="133311.00" timeLoss="143173.61" speed="0.46" speedRelative="0.02" departed="1220" arrived="23" entered="0" left="1197" laneChangedFrom="1265" laneChangedTo="1265"/>
        <edge id="672153002#0" sampledSeconds="3227.23" traveltime="0.18" overlapTraveltime="1.25" density="600.00" laneDensity="200.00" occupancy="5.20" waitingTime="434.00" timeLoss="1754.58" speed="5.43" speedRelative="0.20" departed="46" arrived="0" entered="3067" left="3111" laneChangedFrom="70" laneChangedTo="70"/>
        <edge id="672153002#1" sampledSeconds="1293.83" traveltime="0.02" overlapTraveltime="0.69" density="323.46" laneDensity="107.82" occupancy="2.08" waitingTime="0.00" timeLoss="760.20" speed="10.30" speedRelative="0.37" departed="0" arrived="0" entered="2329" left="2329" laneChangedFrom="0" laneChangedTo="0"/>
        <edge id="672153002#2" sampledSeconds="1778.29" traveltime="0.30" overlapTraveltime="0.84" density="25.40" laneDensity="8.47" occupancy="1.83" waitingTime="0.00" timeLoss="945.74" speed="11.90" speedRelative="0.43" departed="19" arrived="0" entered="2329" left="2348" laneChangedFrom="4" laneChangedTo="4"/>
        <edge id="672153002#3" sampledSeconds="7409.58" traveltime="2.86" overlapTraveltime="3.15" density="7.20" laneDensity="2.40" occupancy="1.24" waitingTime="0.00" timeLoss="2241.97" speed="18.19" speedRelative="0.65" departed="10" arrived="125" entered="2364" left="2249" laneChangedFrom="2" laneChangedTo="2"/>
        <edge id="672153002#4" sampledSeconds="2581.73" traveltime="0.90" overlapTraveltime="1.17" density="6.25" laneDensity="2.08" occupancy="0.94" waitingTime="0.00" timeLoss="310.72" speed="22.82" speedRelative="0.82" departed="10" arrived="109" entered="2249" left="2150" laneChangedFrom="1" laneChangedTo="1"/>
        <edge id="672153002#5" sampledSeconds="1503.77" traveltime="0.46" overlapTraveltime="0.73" density="6.71" laneDensity="2.24" occupancy="0.85" waitingTime="0.00" timeLoss="108.04" speed="23.96" speedRelative="0.86" departed="15" arrived="100" entered="2149" left="2064" laneChangedFrom="0" laneChangedTo="0"/>
        <edge id="672153002#6" sampledSeconds="16585.55" traveltime="7.82" overlapTraveltime="8.05" density="4.27" laneDensity="1.42" occupancy="0.80" waitingTime="0.00" timeLoss="850.15" speed="24.87" speedRelative="0.90" departed="18" arrived="2080" entered="2064" left="0" laneChangedFrom="3" laneChangedTo="3"/>
        <edge id="687375092#0" sampledSeconds="100.06" traveltime="0.01" overlapTraveltime="0.69" density="41.69" laneDensity="20.85" occupancy="0.24" waitingTime="0.00" timeLoss="55.46" speed="9.69" speedRelative="0.44" departed="0" arrived="0" entered="178" left="178" laneChangedFrom="0" laneChangedTo="0"/>
        <edge id="687375092#1" sampledSeconds="120.83" traveltime="0.27" overlapTraveltime="0.78" density="2.01" laneDensity="1.00" occupancy="0.19" waitingTime="0.00" timeLoss="57.53" speed="11.50" speedRelative="0.52" departed="0" arrived="94" entered="178" left="84" laneChangedFrom="0" laneChangedTo="0"/>
        <edge id="687375092#2" sampledSeconds="325.67" traveltime="3.62" overlapTraveltime="3.90" density="0.25" laneDensity="0.12" occupancy="0.07" waitingTime="0.00" timeLoss="54.88" speed="18.40" speedRelative="0.83" departed="2" arrived="86" entered="84" left="0" laneChangedFrom="0" laneChangedTo="0"/>
        <edge id="687376009" sampledSeconds="108.82" traveltime="11.60" overlapTraveltime="11.00" density="0.43" laneDensity="0.43" occupancy="0.29" waitingTime="59.00" timeLoss="99.45" speed="1.83" speedRelative="0.08" departed="16" arrived="0" entered="0" left="16" laneChangedFrom="0" laneChangedTo="0"/>
        <edge id="687376010#0" sampledSeconds="873.33" traveltime="0.02" overlapTraveltime="0.71" density="218.33" laneDensity="109.17" occupancy="2.11" waitingTime="0.00" timeLoss="482.32" speed="9.61" speedRelative="0.43" departed="0" arrived="0" entered="1502" left="1502" laneChangedFrom="0" laneChangedTo="0"/>
        <edge id="687376010#1" sampledSeconds="1801.26" traveltime="0.76" overlapTraveltime="1.25" density="10.57" laneDensity="5.29" occupancy="1.78" waitingTime="0.00" timeLoss="832.69" speed="11.62" speedRelative="0.52" departed="14" arrived="85" entered="1502" left="1431" laneChangedFrom="0" laneChangedTo="0"/>
        <edge id="687376010#2" sampledSeconds="3627.37" traveltime="2.15" overlapTraveltime="2.54" density="5.54" laneDensity="2.77" occupancy="1.31" waitingTime="0.00" timeLoss="965.45" speed="15.17" speedRelative="0.68" departed="12" arrived="128" entered="1440" left="1324" laneChangedFrom="0" laneChangedTo="0"/>
        <edge id="687376010#3" sampledSeconds="1056.29" traveltime="0.65" overlapTraveltime="0.96" density="4.17" laneDensity="2.09" occupancy="0.82" waitingTime="0.00" timeLoss="100.38" speed="19.54" speedRelative="0.88" departed="17" arrived="94" entered="1130" left="1053" laneChangedFrom="0" laneChangedTo="0"/>
        <edge id="687376010#4" sampledSeconds="4087.68" traveltime="3.09" overlapTraveltime="3.36" density="3.17" laneDensity="1.58" occupancy="0.83" waitingTime="0.00" timeLoss="127.34" speed="20.94" speedRelative="0.94" departed="294" arrived="1368" entered="1074" left="0" laneChangedFrom="0" laneChangedTo="0"/>
        <edge id="687443514" sampledSeconds="2135.26" traveltime="0.04" overlapTraveltime="1.11" density="400.00" laneDensity="200.00" occupancy="5.15" waitingTime="0.00" timeLoss="938.81" speed="5.97" speedRelative="0.27" departed="0" arrived="0" entered="2355" left="2346" laneChangedFrom="3" laneChangedTo="3"/>
        <edge id="687443515" sampledSeconds="1461.24" traveltime="0.04" overlapTraveltime="1.23" density="365.31" laneDensity="121.77" occupancy="2.34" waitingTime="0.00" timeLoss="388.72" speed="5.60" speedRelative="0.25" departed="0" arrived="0" entered="1442" left="1439" laneChangedFrom="97" laneChangedTo="97"/>
        <edge id="688169643#0" sampledSeconds="1651.99" traveltime="0.24" overlapTraveltime="0.82" density="32.91" laneDensity="10.97" occupancy="1.89" waitingTime="0.00" timeLoss="961.94" speed="10.73" speedRelative="0.39" departed="0" arrived="0" entered="2247" left="2247" laneChangedFrom="1" laneChangedTo="1"/>
        <edge id="688169643#1" sampledSeconds="1040.71" traveltime="0.02" overlapTraveltime="0.57" density="260.18" laneDensity="86.73" occupancy="1.67" waitingTime="0.00" timeLoss="544.83" speed="12.09" speedRelative="0.44" departed="10" arrived="0" entered="2247" left="2257" laneChangedFrom="1" laneChangedTo="1"/>
        <edge id="688169643#2" sampledSeconds="14953.00" traveltime="6.31" overlapTraveltime="6.57" density="5.69" laneDensity="1.90" occupancy="1.01" waitingTime="0.00" timeLoss="3085.73" speed="20.85" speedRelative="0.75" departed="13" arrived="107" entered="2274" left="2180" laneChangedFrom="29" laneChangedTo="29"/>
        <edge id="688169644#0" sampledSeconds="72818.82" traveltime="45.59" overlapTraveltime="46.29" density="309.60" laneDensity="77.40" occupancy="35.87" waitingTime="68007.00" timeLoss="71600.96" speed="0.37" speedRelative="0.01" departed="45" arrived="0" entered="1538" left="1583" laneChangedFrom="59" laneChangedTo="59"/>
        <edge id="688169644#1" sampledSeconds="1446.11" traveltime="0.03" overlapTraveltime="1.13" density="361.53" laneDensity="90.38" occupancy="1.75" waitingTime="40.00" timeLoss="854.08" speed="6.13" speedRelative="0.22" departed="0" arrived="0" entered="1583" left="1583" laneChangedFrom="0" laneChangedTo="0"/>
        <edge id="688169644#2" sampledSeconds="2158.99" traveltime="0.11" overlapTraveltime="1.06" density="539.75" laneDensity="134.94" occupancy="2.61" waitingTime="187.00" timeLoss="1156.20" speed="6.19" speedRelative="0.22" departed="0" arrived="0" entered="2436" left="2435" laneChangedFrom="20" laneChangedTo="20"/>
        <edge id="688169645" sampledSeconds="130031.59" traveltime="74.02" overlapTraveltime="85.08" density="119.76" laneDensity="29.94" occupancy="14.58" waitingTime="116976.00" timeLoss="126522.41" speed="0.71" speedRelative="0.03" departed="52" arrived="23" entered="1509" left="1538" laneChangedFrom="684" laneChangedTo="684"/>
        <edge id="688169646" sampledSeconds="102654.99" traveltime="108.30" overlapTraveltime="119.57" density="22.39" laneDensity="5.60" occupancy="3.14" waitingTime="86353.00" timeLoss="94935.97" speed="1.97" speedRelative="0.07" departed="1523" arrived="14" entered="0" left="1509" laneChangedFrom="1917" laneChangedTo="1917"/>
        <edge id="688170737" sampledSeconds="7488.83" traveltime="3.38" overlapTraveltime="3.61" density="4.38" laneDensity="1.46" occupancy="0.77" waitingTime="0.00" timeLoss="333.27" speed="25.28" speedRelative="0.91" departed="15" arrived="2105" entered="2090" left="0" laneChangedFrom="4" laneChangedTo="4"/>
        <edge id="688171462#0" sampledSeconds="554969.60" traveltime="709.90" overlapTraveltime="692.97" density="195.72" laneDensity="65.24" occupancy="37.50" waitingTime="528179.89" timeLoss="550453.78" speed="0.21" speedRelative="0.01" departed="1501" arrived="15" entered="0" left="1486" laneChangedFrom="1378" laneChangedTo="1378" teleported="1"/>
        <edge id="688171462#1" sampledSeconds="348701.06" traveltime="191.22" overlapTraveltime="198.31" density="224.33" laneDensity="74.78" occupancy="39.33" waitingTime="320128.00" timeLoss="343153.22" speed="0.42" speedRelative="0.02" departed="61" arrived="34" entered="1731" left="1757" laneChangedFrom="1325" laneChangedTo="1326"/>
        <edge id="688171462#2" sampledSeconds="2869.69" traveltime="0.63" overlapTraveltime="1.72" density="600.00" laneDensity="200.00" occupancy="3.79" waitingTime="1073.00" timeLoss="2464.40" speed="3.50" speedRelative="0.13" departed="46" arrived="0" entered="1757" left="1803" laneChangedFrom="5" laneChangedTo="5"/>
        <edge id="688171462#3" sampledSeconds="2754.33" traveltime="0.61" overlapTraveltime="1.66" density="39.01" laneDensity="13.00" occupancy="2.79" waitingTime="60.00" timeLoss="2088.42" speed="5.84" speedRelative="0.21" departed="0" arrived="0" entered="1803" left="1803" laneChangedFrom="13" laneChangedTo="13"/>
        <edge id="688199688#1" sampledSeconds="117.59" traveltime="9.71" overlapTraveltime="11.10" density="0.10" laneDensity="0.10" occupancy="0.05" waitingTime="31.00" timeLoss="56.10" speed="5.95" speedRelative="0.43" departed="20" arrived="1" entered="0" left="19" laneChangedFrom="0" laneChangedTo="0"/>
        <edge id="688199690" sampledSeconds="396.52" traveltime="2.97" overlapTraveltime="3.59" density="1.00" laneDensity="1.00" occupancy="0.41" waitingTime="19.00" timeLoss="191.11" speed="6.95" speedRelative="0.50" departed="11" arrived="99" entered="109" left="21" laneChangedFrom="0" laneChangedTo="0"/>
        <edge id="688199692" sampledSeconds="555.76" traveltime="1.98" overlapTraveltime="2.92" density="1.81" laneDensity="1.81" occupancy="0.68" waitingTime="0.00" timeLoss="197.48" speed="7.04" speedRelative="0.51" departed="11" arrived="96" entered="194" left="109" laneChangedFrom="0" laneChangedTo="0"/>
        <edge id="688214482" sampledSeconds="109549.03" traveltime="82.24" overlapTraveltime="90.17" density="124.01" laneDensity="41.34" occupancy="21.16" waitingTime="100283.00" timeLoss="106752.24" speed="0.55" speedRelative="0.02" departed="45" arrived="18" entered="1197" left="1224" laneChangedFrom="500" laneChangedTo="500"/>
        <edge id="688214484#0" sampledSeconds="36213.77" traveltime="26.88" overlapTraveltime="29.57" density="319.91" laneDensity="106.64" occupancy="45.12" waitingTime="33911.00" timeLoss="35333.86" speed="0.38" speedRelative="0.02" departed="40" arrived="11" entered="1224" left="1253" laneChangedFrom="35" laneChangedTo="35"/>
        <edge id="688214484#1" sampledSeconds="2664.06" traveltime="1.32" overlapTraveltime="2.72" density="600.00" laneDensity="200.00" occupancy="4.36" waitingTime="1608.00" timeLoss="2100.46" speed="2.68" speedRelative="0.12" departed="0" arrived="0" entered="1253" left="1253" laneChangedFrom="34" laneChangedTo="34" teleported="3"/>
    </interval>
</meandata>
