<?xml version="1.0" encoding="UTF-8"?>

<!-- generated on 2024-12-23 21:38:11 by Eclipse SUMO GUI Version 1.19.0
<configuration xmlns:xsi="http://www.w3.org/2001/XMLSchema-instance" xsi:noNamespaceSchemaLocation="http://sumo.dlr.de/xsd/sumoConfiguration.xsd">

    <input>
        <net-file value="C:\Program Files (x86)\Eclipse\Sumo\bin\simulation12\city_network.net.xml"/>
        <route-files value="C:\Program Files (x86)\Eclipse\Sumo\bin\simulation12\updated_routes1.rou.xml"/>
        <additional-files value="C:\Program Files (x86)\Eclipse\Sumo\bin\simulation12\tls_e3_detectors.add.xml,C:\Program Files (x86)\Eclipse\Sumo\bin\simulation12\ tls_e2_detectors.add.xml,C:\Program Files (x86)\Eclipse\Sumo\bin\simulation12\ tls_e1_detectors.add.xml"/>
    </input>

    <output>
        <fcd-output value="C:\Program Files (x86)\Eclipse\Sumo\bin\simulation12\output.fcd.xml"/>
        <summary-output value="C:\Program Files (x86)\Eclipse\Sumo\bin\simulation12\city_summary.xml"/>
        <tripinfo-output value="C:\Program Files (x86)\Eclipse\Sumo\bin\simulation12\output.tripinfo.xml"/>
        <edgedata-output value="C:\Program Files (x86)\Eclipse\Sumo\bin\simulation12\output.edgeData.xml"/>
    </output>

    <time>
        <begin value="0"/>
        <end value="20000"/>
    </time>

    <report>
        <verbose value="true"/>
        <no-warnings value="true"/>
    </report>

</configuration>
-->

<tripinfos xmlns:xsi="http://www.w3.org/2001/XMLSchema-instance" xsi:noNamespaceSchemaLocation="http://sumo.dlr.de/xsd/tripinfo_file.xsd">
    <tripinfo id="10" depart="0.00" departLane="688170737_0" departPos="63.60" departSpeed="20.00" departDelay="0.00" arrival="2.00" arrivalLane="688170737_0" arrivalPos="85.57" arrivalSpeed="19.05" duration="2.00" routeLength="21.97" waitingTime="0.00" waitingCount="0" stopTime="0.00" timeLoss="0.07" rerouteNo="0" devices="tripinfo_10 fcd_10" vType="bus" speedFactor="1.05" vaporized=""/>
    <tripinfo id="70" depart="0.00" departLane="687376010#4_0" departPos="44.13" departSpeed="20.00" departDelay="0.00" arrival="2.00" arrivalLane="687376010#4_0" arrivalPos="64.56" arrivalSpeed="19.02" duration="2.00" routeLength="20.43" waitingTime="0.00" waitingCount="0" stopTime="0.00" timeLoss="0.07" rerouteNo="0" devices="tripinfo_70 fcd_70" vType="bus" speedFactor="1.04" vaporized=""/>
    <tripinfo id="76" depart="0.00" departLane="687376010#4_0" departPos="2.98" departSpeed="21.11" departDelay="0.00" arrival="3.00" arrivalLane="687376010#4_0" arrivalPos="64.56" arrivalSpeed="23.03" duration="3.00" routeLength="61.58" waitingTime="0.00" waitingCount="0" stopTime="0.00" timeLoss="0.33" rerouteNo="0" devices="tripinfo_76 fcd_76" vType="motorcycle" speedFactor="1.09" vaporized=""/>
    <tripinfo id="44" depart="3.00" departLane="412441780#0_0" departPos="61.65" departSpeed="21.08" departDelay="3.00" arrival="4.00" arrivalLane="412441780#0_0" arrivalPos="66.43" arrivalSpeed="21.08" duration="1.00" routeLength="4.78" waitingTime="0.00" waitingCount="0" stopTime="0.00" timeLoss="0.00" rerouteNo="0" devices="tripinfo_44 fcd_44" vType="sedan" speedFactor="0.95" vaporized=""/>
    <tripinfo id="164" depart="1.00" departLane="688170737_0" departPos="22.60" departSpeed="24.50" departDelay="1.00" arrival="4.00" arrivalLane="688170737_0" arrivalPos="85.57" arrivalSpeed="28.24" duration="3.00" routeLength="62.97" waitingTime="0.00" waitingCount="0" stopTime="0.00" timeLoss="0.17" rerouteNo="0" devices="tripinfo_164 fcd_164" vType="sedan" speedFactor="1.02" vaporized=""/>
    <tripinfo id="235" depart="0.00" departLane="687376010#3_0" departPos="5.02" departSpeed="19.66" departDelay="0.00" arrival="4.00" arrivalLane="687376010#4_0" arrivalPos="64.56" arrivalSpeed="22.20" duration="4.00" routeLength="80.47" waitingTime="0.00" waitingCount="0" stopTime="0.00" timeLoss="0.47" rerouteNo="0" devices="tripinfo_235 fcd_235" vType="sedan" speedFactor="1.04" vaporized=""/>
    <tripinfo id="251" depart="0.00" departLane="687376010#1_0" departPos="4.64" departSpeed="22.56" departDelay="0.00" arrival="7.00" arrivalLane="687376010#4_0" arrivalPos="64.56" arrivalSpeed="22.56" duration="7.00" routeLength="139.60" waitingTime="0.00" waitingCount="0" stopTime="0.00" timeLoss="0.00" rerouteNo="0" devices="tripinfo_251 fcd_251" vType="sedan" speedFactor="1.02" vaporized=""/>
    <tripinfo id="120" depart="6.00" departLane="687376010#4_0" departPos="19.13" departSpeed="22.57" departDelay="6.00" arrival="9.00" arrivalLane="687376010#4_0" arrivalPos="64.56" arrivalSpeed="22.57" duration="3.00" routeLength="45.43" waitingTime="0.00" waitingCount="0" stopTime="0.00" timeLoss="0.00" rerouteNo="0" devices="tripinfo_120 fcd_120" vType="sedan" speedFactor="1.02" vaporized=""/>
    <tripinfo id="175" depart="0.00" departLane="688199692_0" departPos="14.39" departSpeed="4.52" departDelay="0.00" arrival="10.00" arrivalLane="687376010#4_0" arrivalPos="64.56" arrivalSpeed="20.79" duration="10.00" routeLength="97.42" waitingTime="0.00" waitingCount="0" stopTime="0.00" timeLoss="3.82" rerouteNo="0" devices="tripinfo_175 fcd_175" vType="sedan" speedFactor="1.12" vaporized=""/>
    <tripinfo id="198" depart="10.00" departLane="687376010#4_0" departPos="54.96" departSpeed="22.42" departDelay="10.00" arrival="11.00" arrivalLane="687376010#4_0" arrivalPos="64.56" arrivalSpeed="22.42" duration="1.00" routeLength="9.60" waitingTime="0.00" waitingCount="0" stopTime="0.00" timeLoss="0.00" rerouteNo="0" devices="tripinfo_198 fcd_198" vType="sedan" speedFactor="1.01" vaporized=""/>
    <tripinfo id="49" depart="0.00" departLane="688199688#1_0" departPos="15.92" departSpeed="16.37" departDelay="0.00" arrival="12.00" arrivalLane="688170737_0" arrivalPos="85.57" arrivalSpeed="22.64" duration="12.00" routeLength="138.94" waitingTime="0.00" waitingCount="0" stopTime="0.00" timeLoss="5.14" rerouteNo="0" devices="tripinfo_49 fcd_49" vType="sedan" speedFactor="1.18" vaporized=""/>
    <tripinfo id="11" depart="0.00" departLane="672153002#2_0" departPos="0.87" departSpeed="24.61" departDelay="0.00" arrival="13.00" arrivalLane="672153002#6_0" arrivalPos="194.42" arrivalSpeed="24.61" duration="13.00" routeLength="313.88" waitingTime="0.00" waitingCount="0" stopTime="0.00" timeLoss="0.00" rerouteNo="0" devices="tripinfo_11 fcd_11" vType="sedan" speedFactor="0.89" vaporized=""/>
    <tripinfo id="181" depart="10.00" departLane="687376010#4_0" departPos="7.38" departSpeed="21.51" departDelay="10.00" arrival="13.00" arrivalLane="687376010#4_0" arrivalPos="64.56" arrivalSpeed="21.51" duration="3.00" routeLength="57.18" waitingTime="0.00" waitingCount="0" stopTime="0.00" timeLoss="0.00" rerouteNo="0" devices="tripinfo_181 fcd_181" vType="sedan" speedFactor="0.97" vaporized=""/>
    <tripinfo id="207" depart="0.00" departLane="50437158_0" departPos="11.38" departSpeed="1.44" departDelay="0.00" arrival="18.00" arrivalLane="-688199688#1_0" arrivalPos="60.19" arrivalSpeed="13.08" duration="18.00" routeLength="219.04" waitingTime="0.00" waitingCount="0" stopTime="0.00" timeLoss="5.73" rerouteNo="0" devices="tripinfo_207 fcd_207" vType="sedan" speedFactor="0.94" vaporized=""/>
    <tripinfo id="8" depart="2.00" departLane="50437161_0" departPos="13.57" departSpeed="19.87" departDelay="2.00" arrival="25.00" arrivalLane="687376010#4_1" arrivalPos="64.56" arrivalSpeed="22.89" duration="23.00" routeLength="318.58" waitingTime="0.00" waitingCount="0" stopTime="0.00" timeLoss="6.43" rerouteNo="0" devices="tripinfo_8 fcd_8" vType="sedan" speedFactor="1.03" vaporized=""/>
    <tripinfo id="1" depart="0.00" departLane="50437161_0" departPos="71.97" departSpeed="0.00" departDelay="0.00" arrival="30.00" arrivalLane="672153002#6_1" arrivalPos="194.42" arrivalSpeed="25.00" duration="30.00" routeLength="426.95" waitingTime="0.00" waitingCount="0" stopTime="0.00" timeLoss="11.14" rerouteNo="0" devices="tripinfo_1 fcd_1" vType="truck" speedFactor="1.06" vaporized=""/>
    <tripinfo id="35" depart="6.00" departLane="50437161_0" departPos="36.81" departSpeed="13.87" departDelay="6.00" arrival="32.00" arrivalLane="688199690_0" arrivalPos="19.74" arrivalSpeed="11.39" duration="26.00" routeLength="247.95" waitingTime="0.00" waitingCount="0" stopTime="0.00" timeLoss="8.69" rerouteNo="0" devices="tripinfo_35 fcd_35" vType="sedan" speedFactor="0.89" vaporized=""/>
    <tripinfo id="71" depart="8.00" departLane="50437161_0" departPos="34.80" departSpeed="14.61" departDelay="8.00" arrival="32.00" arrivalLane="688170737_0" arrivalPos="85.57" arrivalSpeed="28.99" duration="24.00" routeLength="369.75" waitingTime="0.00" waitingCount="0" stopTime="0.00" timeLoss="9.17" rerouteNo="0" devices="tripinfo_71 fcd_71" vType="sedan" speedFactor="1.04" vaporized=""/>
    <tripinfo id="39" depart="7.00" departLane="50437161_0" departPos="10.04" departSpeed="20.05" departDelay="7.00" arrival="34.00" arrivalLane="672153002#6_1" arrivalPos="194.42" arrivalSpeed="25.48" duration="27.00" routeLength="488.88" waitingTime="0.00" waitingCount="0" stopTime="0.00" timeLoss="5.02" rerouteNo="0" devices="tripinfo_39 fcd_39" vType="sedan" speedFactor="0.92" vaporized=""/>
    <tripinfo id="117" depart="16.00" departLane="50437161_0" departPos="31.86" departSpeed="12.96" departDelay="16.00" arrival="35.00" arrivalLane="672153002#5_1" arrivalPos="11.20" arrivalSpeed="28.05" duration="19.00" routeLength="272.34" waitingTime="0.00" waitingCount="0" stopTime="0.00" timeLoss="7.42" rerouteNo="0" devices="tripinfo_117 fcd_117" vType="sedan" speedFactor="1.08" vaporized=""/>
    <tripinfo id="34" depart="4.00" departLane="50437161_0" departPos="6.46" departSpeed="18.25" departDelay="4.00" arrival="36.00" arrivalLane="672153002#6_1" arrivalPos="194.42" arrivalSpeed="27.09" duration="32.00" routeLength="492.46" waitingTime="0.00" waitingCount="0" stopTime="0.00" timeLoss="11.44" rerouteNo="0" devices="tripinfo_34 fcd_34" vType="sedan" speedFactor="0.97" vaporized=""/>
    <tripinfo id="83" depart="12.00" departLane="50437161_0" departPos="35.91" departSpeed="11.46" departDelay="12.00" arrival="38.00" arrivalLane="688170737_0" arrivalPos="85.57" arrivalSpeed="24.36" duration="26.00" routeLength="368.64" waitingTime="0.00" waitingCount="0" stopTime="0.00" timeLoss="8.82" rerouteNo="0" devices="tripinfo_83 fcd_83" vType="sedan" speedFactor="0.88" vaporized=""/>
    <tripinfo id="26" depart="3.00" departLane="50437161_0" departPos="14.81" departSpeed="17.98" departDelay="3.00" arrival="40.00" arrivalLane="688199690_0" arrivalPos="19.74" arrivalSpeed="11.59" duration="37.00" routeLength="269.95" waitingTime="4.00" waitingCount="1" stopTime="0.00" timeLoss="19.28" rerouteNo="0" devices="tripinfo_26 fcd_26" vType="sedan" speedFactor="0.94" vaporized=""/>
    <tripinfo id="79" depart="12.00" departLane="50437161_0" departPos="58.41" departSpeed="9.45" departDelay="12.00" arrival="40.00" arrivalLane="672153002#6_1" arrivalPos="194.42" arrivalSpeed="25.02" duration="28.00" routeLength="440.51" waitingTime="0.00" waitingCount="0" stopTime="0.00" timeLoss="7.37" rerouteNo="0" devices="tripinfo_79 fcd_79" vType="sedan" speedFactor="0.90" vaporized=""/>
    <tripinfo id="156" depart="21.00" departLane="50437161_0" departPos="23.70" departSpeed="15.64" departDelay="21.00" arrival="40.00" arrivalLane="672153002#4_1" arrivalPos="20.65" arrivalSpeed="24.91" duration="19.00" routeLength="260.10" waitingTime="0.00" waitingCount="0" stopTime="0.00" timeLoss="7.35" rerouteNo="0" devices="tripinfo_156 fcd_156" vType="sedan" speedFactor="1.00" vaporized=""/>
    <tripinfo id="5" depart="0.00" departLane="50437161_0" departPos="3.67" departSpeed="20.16" departDelay="0.00" arrival="42.00" arrivalLane="687376010#4_1" arrivalPos="64.56" arrivalSpeed="22.45" duration="42.00" routeLength="328.48" waitingTime="8.00" waitingCount="1" stopTime="0.00" timeLoss="25.22" rerouteNo="0" devices="tripinfo_5 fcd_5" vType="sedan" speedFactor="1.01" vaporized=""/>
    <tripinfo id="105" depart="16.00" departLane="50437161_0" departPos="59.69" departSpeed="9.02" departDelay="16.00" arrival="45.00" arrivalLane="688170737_1" arrivalPos="85.57" arrivalSpeed="27.67" duration="29.00" routeLength="350.09" waitingTime="1.00" waitingCount="1" stopTime="0.00" timeLoss="13.50" rerouteNo="0" devices="tripinfo_105 fcd_105" vType="sedan" speedFactor="1.00" vaporized=""/>
    <tripinfo id="84" depart="14.00" departLane="50437161_0" departPos="17.82" departSpeed="18.69" departDelay="14.00" arrival="46.00" arrivalLane="672153002#6_1" arrivalPos="194.42" arrivalSpeed="23.62" duration="32.00" routeLength="481.10" waitingTime="0.00" waitingCount="0" stopTime="0.00" timeLoss="7.78" rerouteNo="0" devices="tripinfo_84 fcd_84" vType="sedan" speedFactor="0.85" vaporized=""/>
    <tripinfo id="125" depart="18.00" departLane="50437161_0" departPos="24.42" departSpeed="14.28" departDelay="18.00" arrival="49.00" arrivalLane="688170737_1" arrivalPos="85.57" arrivalSpeed="24.51" duration="31.00" routeLength="385.36" waitingTime="0.00" waitingCount="0" stopTime="0.00" timeLoss="12.05" rerouteNo="0" devices="tripinfo_125 fcd_125" vType="sedan" speedFactor="0.88" vaporized=""/>
    <tripinfo id="168" depart="22.00" departLane="50437161_0" departPos="28.84" departSpeed="12.30" departDelay="22.00" arrival="51.00" arrivalLane="688170737_1" arrivalPos="85.57" arrivalSpeed="30.31" duration="29.00" routeLength="380.94" waitingTime="0.00" waitingCount="0" stopTime="0.00" timeLoss="13.92" rerouteNo="0" devices="tripinfo_168 fcd_168" vType="sedan" speedFactor="1.09" vaporized=""/>
    <tripinfo id="196" depart="30.00" departLane="50437161_0" departPos="4.87" departSpeed="15.09" departDelay="30.00" arrival="54.00" arrivalLane="687376010#4_1" arrivalPos="64.56" arrivalSpeed="19.24" duration="24.00" routeLength="327.28" waitingTime="0.00" waitingCount="0" stopTime="0.00" timeLoss="4.62" rerouteNo="0" devices="tripinfo_196 fcd_196" vType="sedan" speedFactor="0.87" vaporized=""/>
    <tripinfo id="288" depart="53.00" departLane="687376010#4_0" departPos="61.08" departSpeed="22.06" departDelay="0.00" arrival="54.00" arrivalLane="687376010#4_0" arrivalPos="64.56" arrivalSpeed="22.06" duration="1.00" routeLength="3.48" waitingTime="0.00" waitingCount="0" stopTime="0.00" timeLoss="0.00" rerouteNo="0" devices="tripinfo_288 fcd_288" vType="sedan" speedFactor="0.99" vaporized=""/>
    <tripinfo id="258" depart="46.00" departLane="50437161_0" departPos="16.04" departSpeed="14.33" departDelay="46.00" arrival="56.00" arrivalLane="50437161_2" arrivalPos="80.77" arrivalSpeed="10.40" duration="10.00" routeLength="64.73" waitingTime="1.00" waitingCount="1" stopTime="0.00" timeLoss="7.24" rerouteNo="0" devices="tripinfo_258 fcd_258" vType="sedan" speedFactor="1.13" vaporized=""/>
    <tripinfo id="7" depart="0.00" departLane="688169645_0" departPos="26.68" departSpeed="19.79" departDelay="0.00" arrival="66.00" arrivalLane="687376010#4_0" arrivalPos="64.56" arrivalSpeed="24.06" duration="66.00" routeLength="213.03" waitingTime="49.00" waitingCount="1" stopTime="0.00" timeLoss="56.21" rerouteNo="0" devices="tripinfo_7 fcd_7" vType="sedan" speedFactor="1.08" vaporized=""/>
    <tripinfo id="27" depart="4.00" departLane="688169645_0" departPos="2.54" departSpeed="21.62" departDelay="4.00" arrival="67.00" arrivalLane="688169643#2_0" arrivalPos="131.30" arrivalSpeed="26.01" duration="63.00" routeLength="260.81" waitingTime="45.00" waitingCount="1" stopTime="0.00" timeLoss="52.81" rerouteNo="0" devices="tripinfo_27 fcd_27" vType="sedan" speedFactor="0.94" vaporized=""/>
    <tripinfo id="46" depart="0.00" departLane="688169646_0" departPos="129.82" departSpeed="26.14" departDelay="0.00" arrival="67.00" arrivalLane="687375092#2_0" arrivalPos="65.93" arrivalSpeed="22.28" duration="67.00" routeLength="307.06" waitingTime="44.00" waitingCount="1" stopTime="0.00" timeLoss="55.61" rerouteNo="0" devices="tripinfo_46 fcd_46" vType="sedan" speedFactor="1.13" vaporized=""/>
    <tripinfo id="90" depart="4.00" departLane="688169646_0" departPos="97.03" departSpeed="25.60" departDelay="4.00" arrival="69.00" arrivalLane="688170737_2" arrivalPos="85.57" arrivalSpeed="28.25" duration="65.00" routeLength="496.06" waitingTime="39.00" waitingCount="1" stopTime="0.00" timeLoss="47.43" rerouteNo="0" devices="tripinfo_90 fcd_90" vType="sedan" speedFactor="1.02" vaporized=""/>
    <tripinfo id="2" depart="0.00" departLane="688169646_0" departPos="163.35" departSpeed="26.07" departDelay="0.00" arrival="70.00" arrivalLane="688170737_1" arrivalPos="85.57" arrivalSpeed="26.07" duration="70.00" routeLength="429.74" waitingTime="45.00" waitingCount="1" stopTime="0.00" timeLoss="52.92" rerouteNo="0" devices="tripinfo_2 fcd_2" vType="sedan" speedFactor="0.94" vaporized=""/>
    <tripinfo id="51" depart="1.00" departLane="688169646_0" departPos="75.96" departSpeed="27.92" departDelay="1.00" arrival="70.00" arrivalLane="687376010#4_0" arrivalPos="64.56" arrivalSpeed="22.34" duration="69.00" routeLength="393.31" waitingTime="44.00" waitingCount="1" stopTime="0.00" timeLoss="52.29" rerouteNo="0" devices="tripinfo_51 fcd_51" vType="sedan" speedFactor="1.01" vaporized=""/>
    <tripinfo id="154" depart="12.00" departLane="688169646_0" departPos="26.29" departSpeed="30.32" departDelay="12.00" arrival="71.00" arrivalLane="688170737_2" arrivalPos="85.57" arrivalSpeed="31.89" duration="59.00" routeLength="566.80" waitingTime="30.00" waitingCount="1" stopTime="0.00" timeLoss="40.35" rerouteNo="0" devices="tripinfo_154 fcd_154" vType="sedan" speedFactor="1.15" vaporized=""/>
    <tripinfo id="261" depart="15.00" departLane="688169645_0" departPos="23.36" departSpeed="6.63" departDelay="15.00" arrival="71.00" arrivalLane="688170737_1" arrivalPos="85.57" arrivalSpeed="28.67" duration="56.00" routeLength="340.17" waitingTime="34.00" waitingCount="1" stopTime="0.00" timeLoss="44.92" rerouteNo="0" devices="tripinfo_261 fcd_261" vType="sedan" speedFactor="1.14" vaporized=""/>
    <tripinfo id="157" depart="15.00" departLane="688169646_0" departPos="27.38" departSpeed="28.97" departDelay="15.00" arrival="72.00" arrivalLane="688170737_1" arrivalPos="85.57" arrivalSpeed="28.67" duration="57.00" routeLength="565.71" waitingTime="28.00" waitingCount="1" stopTime="0.00" timeLoss="37.33" rerouteNo="0" devices="tripinfo_157 fcd_157" vType="sedan" speedFactor="1.04" vaporized=""/>
    <tripinfo id="60" depart="1.00" departLane="688169646_0" departPos="29.66" departSpeed="28.33" departDelay="1.00" arrival="73.00" arrivalLane="687376010#4_0" arrivalPos="64.56" arrivalSpeed="22.66" duration="72.00" routeLength="439.61" waitingTime="43.00" waitingCount="1" stopTime="0.00" timeLoss="52.87" rerouteNo="0" devices="tripinfo_60 fcd_60" vType="sedan" speedFactor="1.02" vaporized=""/>
    <tripinfo id="186" depart="18.00" departLane="688169646_0" departPos="48.54" departSpeed="24.83" departDelay="18.00" arrival="73.00" arrivalLane="688170737_2" arrivalPos="85.57" arrivalSpeed="24.83" duration="55.00" routeLength="544.55" waitingTime="24.00" waitingCount="1" stopTime="0.00" timeLoss="32.36" rerouteNo="0" devices="tripinfo_186 fcd_186" vType="sedan" speedFactor="0.89" vaporized=""/>
    <tripinfo id="214" depart="26.00" departLane="688169646_0" departPos="17.98" departSpeed="28.65" departDelay="26.00" arrival="74.00" arrivalLane="688170737_1" arrivalPos="85.57" arrivalSpeed="27.43" duration="48.00" routeLength="575.11" waitingTime="17.00" waitingCount="1" stopTime="0.00" timeLoss="27.46" rerouteNo="0" devices="tripinfo_214 fcd_214" vType="sedan" speedFactor="1.03" vaporized=""/>
    <tripinfo id="257" depart="32.00" departLane="688169646_0" departPos="118.60" departSpeed="26.01" departDelay="32.00" arrival="74.00" arrivalLane="688170737_2" arrivalPos="85.57" arrivalSpeed="26.01" duration="42.00" routeLength="474.49" waitingTime="14.00" waitingCount="1" stopTime="0.00" timeLoss="23.30" rerouteNo="0" devices="tripinfo_257 fcd_257" vType="sedan" speedFactor="0.94" vaporized=""/>
    <tripinfo id="61" depart="3.00" departLane="688169646_0" departPos="41.03" departSpeed="25.00" departDelay="3.00" arrival="77.00" arrivalLane="687376010#4_0" arrivalPos="64.56" arrivalSpeed="21.62" duration="74.00" routeLength="428.24" waitingTime="43.00" waitingCount="1" stopTime="0.00" timeLoss="54.43" rerouteNo="0" devices="tripinfo_61 fcd_61" vType="truck" speedFactor="0.97" vaporized=""/>
    <tripinfo id="69" depart="3.00" departLane="688169646_0" departPos="227.49" departSpeed="5.09" departDelay="3.00" arrival="77.00" arrivalLane="672153002#6_1" arrivalPos="194.42" arrivalSpeed="30.33" duration="74.00" routeLength="444.04" waitingTime="43.00" waitingCount="1" stopTime="0.00" timeLoss="58.02" rerouteNo="0" devices="tripinfo_69 fcd_69" vType="sedan" speedFactor="1.09" vaporized=""/>
    <tripinfo id="275" depart="37.00" departLane="688169646_0" departPos="29.37" departSpeed="29.57" departDelay="37.00" arrival="78.00" arrivalLane="688169645_1" arrivalPos="54.29" arrivalSpeed="16.69" duration="41.00" routeLength="254.48" waitingTime="18.00" waitingCount="3" stopTime="0.00" timeLoss="31.96" rerouteNo="0" devices="tripinfo_275 fcd_275" vType="sedan" speedFactor="1.06" vaporized=""/>
    <tripinfo id="166" depart="15.00" departLane="688169646_0" departPos="104.48" departSpeed="22.82" departDelay="15.00" arrival="79.00" arrivalLane="672153002#4_1" arrivalPos="20.65" arrivalSpeed="23.16" duration="64.00" routeLength="351.93" waitingTime="33.00" waitingCount="1" stopTime="0.00" timeLoss="45.62" rerouteNo="0" devices="tripinfo_166 fcd_166" vType="sedan" speedFactor="0.83" vaporized=""/>
    <tripinfo id="199" depart="21.00" departLane="688169646_0" departPos="228.02" departSpeed="10.76" departDelay="21.00" arrival="81.00" arrivalLane="687376010#3_0" arrivalPos="12.66" arrivalSpeed="18.12" duration="60.00" routeLength="168.42" waitingTime="37.00" waitingCount="1" stopTime="0.00" timeLoss="52.60" rerouteNo="0" devices="tripinfo_199 fcd_199" vType="sedan" speedFactor="1.10" vaporized=""/>
    <tripinfo id="124" depart="6.00" departLane="688169646_0" departPos="94.24" departSpeed="22.36" departDelay="6.00" arrival="82.00" arrivalLane="672153002#6_1" arrivalPos="194.42" arrivalSpeed="26.05" duration="76.00" routeLength="577.29" waitingTime="39.00" waitingCount="1" stopTime="0.00" timeLoss="50.68" rerouteNo="0" devices="tripinfo_124 fcd_124" vType="sedan" speedFactor="0.94" vaporized=""/>
    <tripinfo id="136" depart="6.00" departLane="688169646_0" departPos="78.61" departSpeed="19.61" departDelay="6.00" arrival="82.00" arrivalLane="688199690_0" arrivalPos="19.74" arrivalSpeed="11.72" duration="76.00" routeLength="343.27" waitingTime="42.00" waitingCount="1" stopTime="0.00" timeLoss="58.27" rerouteNo="0" devices="tripinfo_136 fcd_136" vType="sedan" speedFactor="0.97" vaporized=""/>
    <tripinfo id="140" depart="7.00" departLane="688169646_0" departPos="9.77" departSpeed="27.36" departDelay="7.00" arrival="83.00" arrivalLane="672153002#6_1" arrivalPos="194.42" arrivalSpeed="27.36" duration="76.00" routeLength="661.76" waitingTime="37.00" waitingCount="1" stopTime="0.00" timeLoss="49.26" rerouteNo="0" devices="tripinfo_140 fcd_140" vType="sedan" speedFactor="0.98" vaporized=""/>
    <tripinfo id="147" depart="11.00" departLane="688169646_0" departPos="106.12" departSpeed="20.00" departDelay="11.00" arrival="83.00" arrivalLane="687376010#4_0" arrivalPos="64.56" arrivalSpeed="19.61" duration="72.00" routeLength="363.15" waitingTime="38.00" waitingCount="1" stopTime="0.00" timeLoss="52.76" rerouteNo="0" devices="tripinfo_147 fcd_147" vType="bus" speedFactor="1.09" vaporized=""/>
    <tripinfo id="262" depart="33.00" departLane="688169646_0" departPos="130.72" departSpeed="22.83" departDelay="33.00" arrival="85.00" arrivalLane="688170737_1" arrivalPos="85.57" arrivalSpeed="24.64" duration="52.00" routeLength="462.37" waitingTime="23.00" waitingCount="2" stopTime="0.00" timeLoss="32.36" rerouteNo="0" devices="tripinfo_262 fcd_262" vType="sedan" speedFactor="0.89" vaporized=""/>
    <tripinfo id="170" depart="15.00" departLane="688169646_0" departPos="1.68" departSpeed="27.50" departDelay="15.00" arrival="87.00" arrivalLane="672153002#6_1" arrivalPos="194.42" arrivalSpeed="29.36" duration="72.00" routeLength="669.85" waitingTime="31.00" waitingCount="1" stopTime="0.00" timeLoss="47.36" rerouteNo="0" devices="tripinfo_170 fcd_170" vType="sedan" speedFactor="1.06" vaporized=""/>
    <tripinfo id="228" depart="27.00" departLane="688169646_0" departPos="156.52" departSpeed="25.00" departDelay="27.00" arrival="88.00" arrivalLane="687376010#4_0" arrivalPos="64.56" arrivalSpeed="22.40" duration="61.00" routeLength="312.75" waitingTime="29.00" waitingCount="1" stopTime="0.00" timeLoss="46.24" rerouteNo="0" devices="tripinfo_228 fcd_228" vType="truck" speedFactor="1.01" vaporized=""/>
    <tripinfo id="223" depart="27.00" departLane="688169646_0" departPos="9.88" departSpeed="28.67" departDelay="27.00" arrival="89.00" arrivalLane="687376010#4_0" arrivalPos="64.56" arrivalSpeed="22.94" duration="62.00" routeLength="459.39" waitingTime="25.00" waitingCount="1" stopTime="0.00" timeLoss="43.69" rerouteNo="0" devices="tripinfo_223 fcd_223" vType="sedan" speedFactor="1.03" vaporized=""/>
    <tripinfo id="180" depart="18.00" departLane="688169646_0" departPos="3.05" departSpeed="26.58" departDelay="18.00" arrival="90.00" arrivalLane="672153002#6_1" arrivalPos="194.42" arrivalSpeed="26.58" duration="72.00" routeLength="668.48" waitingTime="29.00" waitingCount="1" stopTime="0.00" timeLoss="45.37" rerouteNo="0" devices="tripinfo_180 fcd_180" vType="sedan" speedFactor="0.96" vaporized=""/>
    <tripinfo id="267" depart="33.00" departLane="688169646_0" departPos="27.35" departSpeed="26.75" departDelay="33.00" arrival="90.00" arrivalLane="688170737_2" arrivalPos="85.57" arrivalSpeed="26.75" duration="57.00" routeLength="565.74" waitingTime="23.00" waitingCount="1" stopTime="0.00" timeLoss="35.50" rerouteNo="0" devices="tripinfo_267 fcd_267" vType="sedan" speedFactor="0.96" vaporized=""/>
    <tripinfo id="269" depart="35.00" departLane="688169646_0" departPos="186.37" departSpeed="15.33" departDelay="35.00" arrival="93.00" arrivalLane="672153002#4_1" arrivalPos="20.65" arrivalSpeed="25.38" duration="58.00" routeLength="270.04" waitingTime="24.00" waitingCount="2" stopTime="0.00" timeLoss="46.31" rerouteNo="0" devices="tripinfo_269 fcd_269" vType="sedan" speedFactor="1.07" vaporized=""/>
    <tripinfo id="202" depart="21.00" departLane="688169646_0" departPos="204.87" departSpeed="12.55" departDelay="21.00" arrival="94.00" arrivalLane="672153002#6_1" arrivalPos="194.42" arrivalSpeed="25.61" duration="73.00" routeLength="466.66" waitingTime="33.00" waitingCount="2" stopTime="0.00" timeLoss="51.75" rerouteNo="0" devices="tripinfo_202 fcd_202" vType="sedan" speedFactor="0.92" vaporized=""/>
    <tripinfo id="190" depart="21.00" departLane="688169646_0" departPos="55.37" departSpeed="28.00" departDelay="21.00" arrival="95.00" arrivalLane="672153002#6_1" arrivalPos="194.42" arrivalSpeed="28.00" duration="74.00" routeLength="616.16" waitingTime="28.00" waitingCount="1" stopTime="0.00" timeLoss="49.78" rerouteNo="0" devices="tripinfo_190 fcd_190" vType="motorcycle" speedFactor="1.03" vaporized=""/>
    <tripinfo id="206" depart="26.00" departLane="688169646_0" departPos="73.72" departSpeed="29.75" departDelay="26.00" arrival="97.00" arrivalLane="672153002#6_1" arrivalPos="194.42" arrivalSpeed="29.75" duration="71.00" routeLength="597.81" waitingTime="27.00" waitingCount="1" stopTime="0.00" timeLoss="47.89" rerouteNo="0" devices="tripinfo_206 fcd_206" vType="sedan" speedFactor="1.07" vaporized=""/>
    <tripinfo id="188" depart="19.00" departLane="688169646_0" departPos="9.07" departSpeed="29.78" departDelay="19.00" arrival="98.00" arrivalLane="672153002#6_1" arrivalPos="194.42" arrivalSpeed="29.80" duration="79.00" routeLength="662.46" waitingTime="32.00" waitingCount="2" stopTime="0.00" timeLoss="54.41" rerouteNo="0" devices="tripinfo_188 fcd_188" vType="sedan" speedFactor="1.07" vaporized=""/>
    <tripinfo id="24" depart="78.00" departLane="688169644#0_0" departPos="1.66" departSpeed="0.00" departDelay="78.00" arrival="104.00" arrivalLane="672153002#6_1" arrivalPos="194.42" arrivalSpeed="24.40" duration="26.00" routeLength="371.44" waitingTime="1.00" waitingCount="1" stopTime="0.00" timeLoss="8.47" rerouteNo="0" devices="tripinfo_24 fcd_24" vType="sedan" speedFactor="0.88" vaporized=""/>
    <tripinfo id="284" depart="83.00" departLane="688169644#0_0" departPos="6.17" departSpeed="2.84" departDelay="56.00" arrival="105.00" arrivalLane="688170737_0" arrivalPos="85.57" arrivalSpeed="24.41" duration="22.00" routeLength="288.49" waitingTime="1.00" waitingCount="1" stopTime="0.00" timeLoss="9.64" rerouteNo="0" devices="tripinfo_284 fcd_284" vType="sedan" speedFactor="0.88" vaporized=""/>
    <tripinfo id="256" depart="30.00" departLane="688169646_0" departPos="27.41" departSpeed="32.34" departDelay="30.00" arrival="106.00" arrivalLane="672153002#6_1" arrivalPos="194.42" arrivalSpeed="29.83" duration="76.00" routeLength="644.12" waitingTime="26.00" waitingCount="2" stopTime="0.00" timeLoss="54.00" rerouteNo="0" devices="tripinfo_256 fcd_256" vType="sedan" speedFactor="1.16" vaporized=""/>
    <tripinfo id="279" depart="42.00" departLane="688169646_0" departPos="96.99" departSpeed="29.97" departDelay="42.00" arrival="107.00" arrivalLane="672153002#6_1" arrivalPos="194.42" arrivalSpeed="29.97" duration="65.00" routeLength="574.54" waitingTime="18.00" waitingCount="3" stopTime="0.00" timeLoss="43.61" rerouteNo="0" devices="tripinfo_279 fcd_279" vType="sedan" speedFactor="1.08" vaporized=""/>